
                                 *****************
                                 * O   R   C   A *
                                 *****************

                                            #,                                       
                                            ###                                      
                                            ####                                     
                                            #####                                    
                                            ######                                   
                                           ########,                                 
                                     ,,################,,,,,                         
                               ,,#################################,,                 
                          ,,##########################################,,             
                       ,#########################################, ''#####,          
                    ,#############################################,,   '####,        
                  ,##################################################,,,,####,       
                ,###########''''           ''''###############################       
              ,#####''   ,,,,##########,,,,          '''####'''          '####       
            ,##' ,,,,###########################,,,                        '##       
           ' ,,###''''                  '''############,,,                           
         ,,##''                                '''############,,,,        ,,,,,,###''
      ,#''                                            '''#######################'''  
     '                                                          ''''####''''         
             ,#######,   #######,   ,#######,      ##                                
            ,#'     '#,  ##    ##  ,#'     '#,    #''#        ######   ,####,        
            ##       ##  ##   ,#'  ##            #'  '#       #        #'  '#        
            ##       ##  #######   ##           ,######,      #####,   #    #        
            '#,     ,#'  ##    ##  '#,     ,#' ,#      #,         ##   #,  ,#        
             '#######'   ##     ##  '#######'  #'      '#     #####' # '####'        



                  #######################################################
                  #                        -***-                        #
                  #          Department of theory and spectroscopy      #
                  #    Directorship and core code : Frank Neese         #
                  #        Max Planck Institute fuer Kohlenforschung    #
                  #                Kaiser Wilhelm Platz 1               #
                  #                 D-45470 Muelheim/Ruhr               #
                  #                      Germany                        #
                  #                                                     #
                  #                  All rights reserved                #
                  #                        -***-                        #
                  #######################################################


                         Program Version 5.0.4 -  RELEASE  -


 With contributions from (in alphabetic order):
   Daniel Aravena         : Magnetic Suceptibility
   Michael Atanasov       : Ab Initio Ligand Field Theory (pilot matlab implementation)
   Alexander A. Auer      : GIAO ZORA, VPT2 properties, NMR spectrum
   Ute Becker             : Parallelization
   Giovanni Bistoni       : ED, misc. LED, open-shell LED, HFLD
   Martin Brehm           : Molecular dynamics
   Dmytro Bykov           : SCF Hessian
   Vijay G. Chilkuri      : MRCI spin determinant printing, contributions to CSF-ICE
   Dipayan Datta          : RHF DLPNO-CCSD density
   Achintya Kumar Dutta   : EOM-CC, STEOM-CC
   Dmitry Ganyushin       : Spin-Orbit,Spin-Spin,Magnetic field MRCI
   Miquel Garcia          : C-PCM and meta-GGA Hessian, CC/C-PCM, Gaussian charge scheme
   Yang Guo               : DLPNO-NEVPT2, F12-NEVPT2, CIM, IAO-localization
   Andreas Hansen         : Spin unrestricted coupled pair/coupled cluster methods
   Benjamin Helmich-Paris : MC-RPA, TRAH-SCF, COSX integrals
   Lee Huntington         : MR-EOM, pCC
   Robert Izsak           : Overlap fitted RIJCOSX, COSX-SCS-MP3, EOM
   Marcus Kettner         : VPT2
   Christian Kollmar      : KDIIS, OOCD, Brueckner-CCSD(T), CCSD density, CASPT2, CASPT2-K
   Simone Kossmann        : Meta GGA functionals, TD-DFT gradient, OOMP2, MP2 Hessian
   Martin Krupicka        : Initial AUTO-CI
   Lucas Lang             : DCDCAS
   Marvin Lechner         : AUTO-CI (C++ implementation), FIC-MRCC
   Dagmar Lenk            : GEPOL surface, SMD
   Dimitrios Liakos       : Extrapolation schemes; Compound Job, initial MDCI parallelization
   Dimitrios Manganas     : Further ROCIS development; embedding schemes
   Dimitrios Pantazis     : SARC Basis sets
   Anastasios Papadopoulos: AUTO-CI, single reference methods and gradients
   Taras Petrenko         : DFT Hessian,TD-DFT gradient, ASA, ECA, R-Raman, ABS, FL, XAS/XES, NRVS
   Peter Pinski           : DLPNO-MP2, DLPNO-MP2 Gradient
   Christoph Reimann      : Effective Core Potentials
   Marius Retegan         : Local ZFS, SOC
   Christoph Riplinger    : Optimizer, TS searches, QM/MM, DLPNO-CCSD(T), (RO)-DLPNO pert. Triples
   Tobias Risthaus        : Range-separated hybrids, TD-DFT gradient, RPA, STAB
   Michael Roemelt        : Original ROCIS implementation
   Masaaki Saitow         : Open-shell DLPNO-CCSD energy and density
   Barbara Sandhoefer     : DKH picture change effects
   Avijit Sen             : IP-ROCIS
   Kantharuban Sivalingam : CASSCF convergence, NEVPT2, FIC-MRCI
   Bernardo de Souza      : ESD, SOC TD-DFT
   Georgi Stoychev        : AutoAux, RI-MP2 NMR, DLPNO-MP2 response
   Willem Van den Heuvel  : Paramagnetic NMR
   Boris Wezisla          : Elementary symmetry handling
   Frank Wennmohs         : Technical directorship


 We gratefully acknowledge several colleagues who have allowed us to
 interface, adapt or use parts of their codes:
   Stefan Grimme, W. Hujo, H. Kruse, P. Pracht,  : VdW corrections, initial TS optimization,
                  C. Bannwarth, S. Ehlert          DFT functionals, gCP, sTDA/sTD-DF
   Ed Valeev, F. Pavosevic, A. Kumar             : LibInt (2-el integral package), F12 methods
   Garnet Chan, S. Sharma, J. Yang, R. Olivares  : DMRG
   Ulf Ekstrom                                   : XCFun DFT Library
   Mihaly Kallay                                 : mrcc  (arbitrary order and MRCC methods)
   Jiri Pittner, Ondrej Demel                    : Mk-CCSD
   Frank Weinhold                                : gennbo (NPA and NBO analysis)
   Christopher J. Cramer and Donald G. Truhlar   : smd solvation model
   Lars Goerigk                                  : TD-DFT with DH, B97 family of functionals
   V. Asgeirsson, H. Jonsson                     : NEB implementation
   FAccTs GmbH                                   : IRC, NEB, NEB-TS, DLPNO-Multilevel, CI-OPT
                                                   MM, QMMM, 2- and 3-layer-ONIOM, Crystal-QMMM,
                                                   LR-CPCM, SF, NACMEs, symmetry and pop. for TD-DFT,
                                                   nearIR, NL-DFT gradient (VV10), updates on ESD,
                                                   ML-optimized integration grids
   S Lehtola, MJT Oliveira, MAL Marques          : LibXC Library
   Liviu Ungur et al                             : ANISO software


 Your calculation uses the libint2 library for the computation of 2-el integrals
 For citations please refer to: http://libint.valeyev.net

 Your ORCA version has been built with support for libXC version: 5.1.0
 For citations please refer to: https://tddft.org/programs/libxc/

 This ORCA versions uses:
   CBLAS   interface :  Fast vector & matrix operations
   LAPACKE interface :  Fast linear algebra routines
   SCALAPACK package :  Parallel linear algebra routines
   Shared memory     :  Shared parallel matrices
   BLAS/LAPACK       :  OpenBLAS 0.3.15  USE64BITINT DYNAMIC_ARCH NO_AFFINITY Zen SINGLE_THREADED
        Core in use  :  Zen
   Copyright (c) 2011-2014, The OpenBLAS Project


================================================================================

----- Orbital basis set information -----
Your calculation utilizes the basis: def2-TZVP
   F. Weigend and R. Ahlrichs, Phys. Chem. Chem. Phys. 7, 3297 (2005).

================================================================================
                                        WARNINGS
                       Please study these warnings very carefully!
================================================================================


WARNING: Geometry Optimization
  ===> : Switching off AutoStart
         For restart on a previous wavefunction, please use MOREAD

INFO   : the flag for use of the SHARK integral package has been found!

================================================================================
                                       INPUT FILE
================================================================================
NAME = 5056551/2_br_prop_ts_hf.inp
|  1> # avogadro generated ORCA input file 
|  2> # Basic Mode
|  3> # 
|  4> ! OptTS NumFreq HF def2-TZVP
|  5> 
|  6> %geom
|  7> 
|  8> MaxIter 1000
|  9> 
| 10> end
| 11> 
| 12> * xyz -1 1
| 13>    C        1.07900       -0.55800       -0.01900
| 14>    H        1.80900        0.26700       -0.02400
| 15>    C        0.90000       -1.28100       -1.21900
| 16>    H        0.92200       -0.69000       -2.13700
| 17>    H        1.88700       -2.00600       -1.33700
| 18>    C        0.85700       -1.23300        1.28500
| 19>    H        1.66700       -1.94900        1.48500
| 20>    H        0.82300       -0.51200        2.11100
| 21>    H       -0.09200       -1.78600        1.29300
| 22>   Br       -0.72500        0.76800        0.17500
| 23>    H        0.07500       -1.99700       -1.23700
| 24>    O        2.96400       -2.78400       -1.44400
| 25>    H        2.78400       -3.10100       -2.30900
| 26> *
| 27> 
| 28> 
| 29>                          ****END OF INPUT****
================================================================================

                       *****************************
                       * Geometry Optimization Run *
                       *****************************

Geometry optimization settings:
Update method            Update   .... Bofill
Choice of coordinates    CoordSys .... Z-matrix Internals
Initial Hessian          InHess   .... Almoef's Model

Convergence Tolerances:
Energy Change            TolE     ....  5.0000e-06 Eh
Max. Gradient            TolMAXG  ....  3.0000e-04 Eh/bohr
RMS Gradient             TolRMSG  ....  1.0000e-04 Eh/bohr
Max. Displacement        TolMAXD  ....  4.0000e-03 bohr
RMS Displacement         TolRMSD  ....  2.0000e-03 bohr
Strict Convergence                ....  False
------------------------------------------------------------------------------
                        ORCA OPTIMIZATION COORDINATE SETUP
------------------------------------------------------------------------------

The optimization will be done in new redundant internal coordinates
Making redundant internal coordinates   ...  (new redundants) done
Following TS mode number                ...     0
Evaluating the initial hessian          ...  (Almloef) done
Evaluating the coordinates              ...  done
Calculating the B-matrix                .... done
Calculating the G-matrix                .... done
Diagonalizing the G-matrix              .... done
The first mode is                       ....   21
The number of degrees of freedom        ....   33

    -----------------------------------------------------------------
                    Redundant Internal Coordinates


    -----------------------------------------------------------------
         Definition                    Initial Value    Approx d2E/dq
    -----------------------------------------------------------------
      1. B(H   1,C   0)                  1.1016         0.345061   
      2. B(C   2,C   0)                  1.4124         0.575519   
      3. B(H   3,C   2)                  1.0920         0.357449   
      4. B(H   4,C   2)                  1.2303         0.215046   
      5. B(C   5,C   0)                  1.4850         0.440675   
      6. B(H   6,C   5)                  1.0994         0.347833   
      7. B(H   7,C   5)                  1.0969         0.351038   
      8. B(H   8,C   5)                  1.0984         0.349163   
      9. B(Br  9,C   0)                  2.2473         0.090048   
     10. B(H  10,C   2)                  1.0925         0.356779   
     11. B(O  11,H   4)                  1.3329         0.132131   
     12. B(H  12,O  11)                  0.9387         0.562324   
     13. A(H   1,C   0,C   2)          117.6130         0.346006   
     14. A(C   2,C   0,Br  9)          105.8819         0.326874   
     15. A(C   2,C   0,C   5)          119.6327         0.403068   
     16. A(C   5,C   0,Br  9)           94.1512         0.312926   
     17. A(H   1,C   0,C   5)          116.3243         0.330936   
     18. A(H   1,C   0,Br  9)           95.1899         0.272241   
     19. A(H   3,C   2,H  10)          110.8577         0.290080   
     20. A(C   0,C   2,H   4)          106.3479         0.319920   
     21. A(C   0,C   2,H   3)          115.7631         0.348066   
     22. A(H   4,C   2,H  10)          102.5926         0.268234   
     23. A(C   0,C   2,H  10)          116.4354         0.347956   
     24. A(H   3,C   2,H   4)          102.8340         0.268310   
     25. L(C   2,H   4,O  11,C   0, 2) 179.8994         0.230478   
     26. L(C   2,H   4,O  11,C   0, 1) 178.9948         0.230478   
     27. A(C   0,C   5,H   6)          110.2192         0.331375   
     28. A(H   7,C   5,H   8)          107.3767         0.288282   
     29. A(H   6,C   5,H   8)          107.8987         0.287869   
     30. A(C   0,C   5,H   8)          111.3704         0.331584   
     31. A(H   6,C   5,H   7)          108.2949         0.288110   
     32. A(C   0,C   5,H   7)          111.5359         0.331878   
     33. A(H   4,O  11,H  12)           96.6698         0.262814   
     34. D(H  10,C   2,C   0,H   1)   -171.5273         0.026525   
     35. D(H   3,C   2,C   0,C   5)    170.5863         0.026525   
     36. D(H   4,C   2,C   0,H   1)     74.9214         0.026525   
     37. D(H  10,C   2,C   0,C   5)     37.6285         0.026525   
     38. D(H   3,C   2,C   0,Br  9)     66.2017         0.026525   
     39. D(H   4,C   2,C   0,Br  9)    179.6926         0.026525   
     40. D(H   3,C   2,C   0,H   1)    -38.5695         0.026525   
     41. D(H  10,C   2,C   0,Br  9)    -66.7561         0.026525   
     42. D(H   4,C   2,C   0,C   5)    -75.9228         0.026525   
     43. D(H   7,C   5,C   0,C   2)   -167.9866         0.015343   
     44. D(H   7,C   5,C   0,H   1)     40.8061         0.015343   
     45. D(H   6,C   5,C   0,Br  9)   -177.4035         0.015343   
     46. D(H   6,C   5,C   0,C   2)     71.6837         0.015343   
     47. D(H   7,C   5,C   0,Br  9)    -57.0738         0.015343   
     48. D(H   6,C   5,C   0,H   1)    -79.5236         0.015343   
     49. D(H   8,C   5,C   0,Br  9)     62.8728         0.015343   
     50. D(H   8,C   5,C   0,C   2)    -48.0399         0.015343   
     51. D(H   8,C   5,C   0,H   1)    160.7528         0.015343   
     52. D(H  12,O  11,C   2,H  10)     64.9898         0.001504   
     53. D(H  12,O  11,C   2,H   3)    -50.3664         0.001504   
     54. D(H  12,O  11,C   2,C   0)   -172.3781         0.001504   
    -----------------------------------------------------------------

Number of atoms                         .... 13
Number of degrees of freedom            .... 54

         *************************************************************
         *                GEOMETRY OPTIMIZATION CYCLE   1            *
         *************************************************************
---------------------------------
CARTESIAN COORDINATES (ANGSTROEM)
---------------------------------
  C      1.079000   -0.558000   -0.019000
  H      1.809000    0.267000   -0.024000
  C      0.900000   -1.281000   -1.219000
  H      0.922000   -0.690000   -2.137000
  H      1.887000   -2.006000   -1.337000
  C      0.857000   -1.233000    1.285000
  H      1.667000   -1.949000    1.485000
  H      0.823000   -0.512000    2.111000
  H     -0.092000   -1.786000    1.293000
  Br    -0.725000    0.768000    0.175000
  H      0.075000   -1.997000   -1.237000
  O      2.964000   -2.784000   -1.444000
  H      2.784000   -3.101000   -2.309000

----------------------------
CARTESIAN COORDINATES (A.U.)
----------------------------
  NO LB      ZA    FRAG     MASS         X           Y           Z
   0 C     6.0000    0    12.011    2.039014   -1.054467   -0.035905
   1 H     1.0000    0     1.008    3.418515    0.504557   -0.045353
   2 C     6.0000    0    12.011    1.700754   -2.420739   -2.303576
   3 H     1.0000    0     1.008    1.742327   -1.303911   -4.038345
   4 H     1.0000    0     1.008    3.565913   -3.790791   -2.526564
   5 C     6.0000    0    12.011    1.619495   -2.330032    2.428298
   6 H     1.0000    0     1.008    3.150173   -3.683076    2.806243
   7 H     1.0000    0     1.008    1.555245   -0.967540    3.989212
   8 H     1.0000    0     1.008   -0.173855   -3.375051    2.443416
   9 Br   35.0000    0    79.900   -1.370051    1.451310    0.330702
  10 H     1.0000    0     1.008    0.141729   -3.773783   -2.337591
  11 O     8.0000    0    15.999    5.601148   -5.260998   -2.728765
  12 H     1.0000    0     1.008    5.260998   -5.860041   -4.363378

--------------------------------
INTERNAL COORDINATES (ANGSTROEM)
--------------------------------
 C      0   0   0     0.000000000000     0.00000000     0.00000000
 H      1   0   0     1.101612454541     0.00000000     0.00000000
 C      1   2   0     1.412363267718   117.61302260     0.00000000
 H      3   1   2     1.092011446826   115.76306530   321.43050949
 H      3   1   2     1.230332475390   106.34789751    74.92141918
 C      1   2   3     1.485033669652   116.32425726   151.80564684
 H      6   1   2     1.099434400044   110.21916981   280.47640953
 H      6   1   2     1.096938011011   111.53592526    40.80612787
 H      6   1   2     1.098396103416   111.37036235   160.75275564
 Br     1   2   3     2.247293483282    95.18990885   249.04623584
 H      3   1   2     1.092522310985   116.43540196   188.47267548
 O      5   3   1     1.332914850994   178.99270155     3.73920838
 H     12   5   3     0.938676728166    96.66981634   183.88858627

---------------------------
INTERNAL COORDINATES (A.U.)
---------------------------
 C      0   0   0     0.000000000000     0.00000000     0.00000000
 H      1   0   0     2.081745844799     0.00000000     0.00000000
 C      1   2   0     2.668979777598   117.61302260     0.00000000
 H      3   1   2     2.063602569609   115.76306530   321.43050949
 H      3   1   2     2.324991432157   106.34789751    74.92141918
 C      1   2   3     2.806306935294   116.32425726   151.80564684
 H      6   1   2     2.077629918295   110.21916981   280.47640953
 H      6   1   2     2.072912426698   111.53592526    40.80612787
 H      6   1   2     2.075667822023   111.37036235   160.75275564
 Br     1   2   3     4.246769225948    95.18990885   249.04623584
 H      3   1   2     2.064567962960   116.43540196   188.47267548
 O      5   3   1     2.518844028215   178.99270155     3.73920838
 H     12   5   3     1.773841944519    96.66981634   183.88858627

---------------------
BASIS SET INFORMATION
---------------------
There are 4 groups of distinct atoms

 Group   1 Type C   : 11s6p2d1f contracted to 5s3p2d1f pattern {62111/411/11/1}
 Group   2 Type H   : 5s1p contracted to 3s1p pattern {311/1}
 Group   3 Type Br  : 17s13p8d1f contracted to 6s5p4d1f pattern {842111/64111/5111/1}
 Group   4 Type O   : 11s6p2d1f contracted to 5s3p2d1f pattern {62111/411/11/1}

Atom   0C    basis set group =>   1
Atom   1H    basis set group =>   2
Atom   2C    basis set group =>   1
Atom   3H    basis set group =>   2
Atom   4H    basis set group =>   2
Atom   5C    basis set group =>   1
Atom   6H    basis set group =>   2
Atom   7H    basis set group =>   2
Atom   8H    basis set group =>   2
Atom   9Br   basis set group =>   3
Atom  10H    basis set group =>   2
Atom  11O    basis set group =>   4
Atom  12H    basis set group =>   2
------------------------------------------------------------------------------
                           ORCA GTO INTEGRAL CALCULATION
------------------------------------------------------------------------------
------------------------------------------------------------------------------
                   ___                                                        
                  /   \      - P O W E R E D   B Y -                         
                 /     \                                                     
                 |  |  |   _    _      __       _____    __    __             
                 |  |  |  | |  | |    /  \     |  _  \  |  |  /  |          
                  \  \/   | |  | |   /    \    | | | |  |  | /  /          
                 / \  \   | |__| |  /  /\  \   | |_| |  |  |/  /          
                |  |  |   |  __  | /  /__\  \  |    /   |      \           
                |  |  |   | |  | | |   __   |  |    \   |  |\   \          
                \     /   | |  | | |  |  |  |  | |\  \  |  | \   \       
                 \___/    |_|  |_| |__|  |__|  |_| \__\ |__|  \__/        
                                                                              
                      - O R C A' S   B I G   F R I E N D -                    
                                      &                                       
                       - I N T E G R A L  F E E D E R -                       
                                                                              
 v1 FN, 2020, v2 2021                                                         
------------------------------------------------------------------------------


Reading SHARK input file 5056551/2_br_prop_ts_hf.SHARKINP.tmp ... ok
----------------------
SHARK INTEGRAL PACKAGE
----------------------

Number of atoms                             ...     13
Number of basis functions                   ...    220
Number of shells                            ...     92
Maximum angular momentum                    ...      3
Integral batch strategy                     ... SHARK/LIBINT Hybrid
RI-J (if used) integral strategy            ... SPLIT-RIJ (Revised 2003 algorithm where possible)
Printlevel                                  ...      1
Contraction scheme used                     ... SEGMENTED contraction
Coulomb Range Separation                    ... NOT USED
Exchange Range Separation                   ... NOT USED
Finite Nucleus Model                        ... NOT USED
Auxiliary Coulomb fitting basis             ... NOT available
Auxiliary J/K fitting basis                 ... NOT available
Auxiliary Correlation fitting basis         ... NOT available
Auxiliary 'external' fitting basis          ... NOT available
Integral threshold                          ...     2.500000e-11
Primitive cut-off                           ...     2.500000e-12
Primitive pair pre-selection threshold      ...     2.500000e-12

Calculating pre-screening integrals         ... done (  0.1 sec) Dimension = 92
Organizing shell pair data                  ... done (  0.1 sec)
Shell pair information
Total number of shell pairs                 ...      4278
Shell pairs after pre-screening             ...      3915
Total number of primitive shell pairs       ...     14206
Primitive shell pairs kept                  ...      9743
          la=0 lb=0:   1140 shell pairs
          la=1 lb=0:   1151 shell pairs
          la=1 lb=1:    308 shell pairs
          la=2 lb=0:    545 shell pairs
          la=2 lb=1:    279 shell pairs
          la=2 lb=2:     72 shell pairs
          la=3 lb=0:    232 shell pairs
          la=3 lb=1:    118 shell pairs
          la=3 lb=2:     56 shell pairs
          la=3 lb=3:     14 shell pairs

Calculating one electron integrals          ... done (  0.0 sec)
Calculating Nuclear repulsion               ... done (  0.0 sec) ENN=    318.347176317207 Eh

SHARK setup successfully completed in   0.4 seconds

Maximum memory used throughout the entire GTOINT-calculation: 58.3 MB
-------------------------------------------------------------------------------
                                 ORCA SCF
-------------------------------------------------------------------------------

------------
SCF SETTINGS
------------
Hamiltonian:
 Ab initio Hamiltonian  Method          .... Hartree-Fock(GTOs)


General Settings:
 Integral files         IntName         .... 5056551/2_br_prop_ts_hf
 Hartree-Fock type      HFTyp           .... RHF
 Total Charge           Charge          ....   -1
 Multiplicity           Mult            ....    1
 Number of Electrons    NEL             ....   70
 Basis Dimension        Dim             ....  220
 Nuclear Repulsion      ENuc            ....    318.3471763172 Eh

Convergence Acceleration:
 DIIS                   CNVDIIS         .... on
   Start iteration      DIISMaxIt       ....    12
   Startup error        DIISStart       ....  0.200000
   # of expansion vecs  DIISMaxEq       ....     5
   Bias factor          DIISBfac        ....   1.050
   Max. coefficient     DIISMaxC        ....  10.000
 Trust-Rad. Augm. Hess. CNVTRAH         .... auto
   Auto Start mean grad. ratio tolernc. ....  1.125000
   Auto Start start iteration           ....    20
   Auto Start num. interpolation iter.  ....    10
   Max. Number of Micro iterations      ....    16
   Max. Number of Macro iterations      .... Maxiter - #DIIS iter
   Number of Davidson start vectors     ....     2
   Converg. threshold I  (grad. norm)   ....   1.000e-05
   Converg. threshold II (energy diff.) ....   1.000e-08
   Grad. Scal. Fac. for Micro threshold ....   0.100
   Minimum threshold for Micro iter.    ....   0.010
   NR start threshold (gradient norm)   ....   0.001
   Initial trust radius                 ....   0.400
   Minimum AH scaling param. (alpha)    ....   1.000
   Maximum AH scaling param. (alpha)    .... 1000.000
   Orbital update algorithm             .... Taylor
   White noise on init. David. guess    .... on
   Maximum white noise                  ....   0.010
   Quad. conv. algorithm                .... NR
 SOSCF                  CNVSOSCF        .... on
   Start iteration      SOSCFMaxIt      ....   150
   Startup grad/error   SOSCFStart      ....  0.003300
 Level Shifting         CNVShift        .... on
   Level shift para.    LevelShift      ....    0.2500
   Turn off err/grad.   ShiftErr        ....    0.0010
 Zerner damping         CNVZerner       .... off
 Static damping         CNVDamp         .... on
   Fraction old density DampFac         ....    0.7000
   Max. Damping (<1)    DampMax         ....    0.9800
   Min. Damping (>=0)   DampMin         ....    0.0000
   Turn off err/grad.   DampErr         ....    0.1000
 Fernandez-Rico         CNVRico         .... off

SCF Procedure:
 Maximum # iterations   MaxIter         ....   125
 SCF integral mode      SCFMode         .... Direct
   Integral package                     .... SHARK and LIBINT hybrid scheme
 Reset frequency        DirectResetFreq ....    20
 Integral Threshold     Thresh          ....  2.500e-11 Eh
 Primitive CutOff       TCut            ....  2.500e-12 Eh

Convergence Tolerance:
 Convergence Check Mode ConvCheckMode   .... Total+1el-Energy
 Convergence forced     ConvForced      .... 0
 Energy Change          TolE            ....  1.000e-08 Eh
 1-El. energy change                    ....  1.000e-05 Eh
 Orbital Gradient       TolG            ....  1.000e-05
 Orbital Rotation angle TolX            ....  1.000e-05
 DIIS Error             TolErr          ....  5.000e-07


Diagonalization of the overlap matrix:
Smallest eigenvalue                        ... 2.210e-04
Time for diagonalization                   ...    0.032 sec
Threshold for overlap eigenvalues          ... 1.000e-08
Number of eigenvalues below threshold      ... 0
Time for construction of square roots      ...    0.011 sec
Total time needed                          ...    0.043 sec

Time for model grid setup =    0.212 sec

------------------------------
INITIAL GUESS: MODEL POTENTIAL
------------------------------
Loading Hartree-Fock densities                     ... done
Calculating cut-offs                               ... done
Initializing the effective Hamiltonian             ... done
Setting up the integral package (SHARK)            ... done
Starting the Coulomb interaction                   ... done (   0.2 sec)
Reading the grid                                   ... done
Mapping shells                                     ... done
Starting the XC term evaluation                    ... done (   0.1 sec)
Transforming the Hamiltonian                       ... done (   0.0 sec)
Diagonalizing the Hamiltonian                      ... done (   0.0 sec)
Back transforming the eigenvectors                 ... done (   0.0 sec)
Now organizing SCF variables                       ... done
                      ------------------
                      INITIAL GUESS DONE (   0.6 sec)
                      ------------------
--------------
SCF ITERATIONS
--------------
ITER       Energy         Delta-E        Max-DP      RMS-DP      [F,P]     Damp
               ***  Starting incremental Fock matrix formation  ***
  0  -2765.1119756224   0.000000000000 0.13600111  0.00187997  0.4474297 0.7000
  1  -2765.2762106912  -0.164235068844 0.13754538  0.00167297  0.2581714 0.7000
                               ***Turning on DIIS***
  2  -2765.3682697556  -0.092059064391 0.07037323  0.00099244  0.1646930 0.7000
  3  -2766.0309065315  -0.662636775939 0.03144045  0.00048589  0.1237981 0.7000
  4  -2766.0126360026   0.018270528900 0.07923474  0.00117047  0.0871841 0.0000
  5  -2765.5851240446   0.427511958024 0.02102303  0.00025081  0.0078780 0.0000
  6  -2765.5509610466   0.034162998026 0.01285669  0.00015787  0.0039074 0.0000
                      *** Initiating the SOSCF procedure ***
                           *** Shutting down DIIS ***
                      *** Re-Reading the Fockian *** 
                      *** Removing any level shift *** 
ITER      Energy       Delta-E        Grad      Rot      Max-DP    RMS-DP
  7  -2765.54766799   0.0032930522  0.002061  0.002061  0.004551  0.000076
               *** Restarting incremental Fock matrix formation ***
  8  -2765.55356646  -0.0058984608  0.000878  0.001707  0.001345  0.000037
  9  -2765.55357614  -0.0000096880  0.000312  0.001577  0.001185  0.000040
 10  -2765.55357954  -0.0000033974  0.000119  0.000082  0.000204  0.000006
 11  -2765.55357985  -0.0000003071  0.000031  0.000049  0.000072  0.000002
 12  -2765.55357987  -0.0000000186  0.000008  0.000030  0.000072  0.000001
 13  -2765.55357987  -0.0000000033  0.000004  0.000020  0.000036  0.000000
                  ***Gradient check signals convergence***
              ***Rediagonalizing the Fockian in SOSCF/NRSCF***

               *****************************************************
               *                     SUCCESS                       *
               *           SCF CONVERGED AFTER  14 CYCLES          *
               *****************************************************


----------------
TOTAL SCF ENERGY
----------------

Total Energy       :        -2765.55357987 Eh          -75254.53878 eV

Components:
Nuclear Repulsion  :          318.34717632 Eh            8662.66707 eV
Electronic Energy  :        -3083.90075619 Eh          -83917.20584 eV
One Electron Energy:        -4492.97312988 Eh         -122260.01444 eV
Two Electron Energy:         1409.07237369 Eh           38342.80860 eV

Virial components:
Potential Energy   :        -5531.25997855 Eh         -150513.23596 eV
Kinetic Energy     :         2765.70639868 Eh           75258.69719 eV
Virial Ratio       :            1.99994475


---------------
SCF CONVERGENCE
---------------

  Last Energy change         ...   -1.0245e-09  Tolerance :   1.0000e-08
  Last MAX-Density change    ...    1.1835e-05  Tolerance :   1.0000e-07
  Last RMS-Density change    ...    1.4118e-07  Tolerance :   5.0000e-09
  Last Orbital Gradient      ...    1.1928e-06  Tolerance :   1.0000e-05
  Last Orbital Rotation      ...    4.0151e-06  Tolerance :   1.0000e-05

             **** THE GBW FILE WAS UPDATED (5056551/2_br_prop_ts_hf.gbw) ****
             **** DENSITY 5056551/2_br_prop_ts_hf.scfp WAS UPDATED ****
             **** ENERGY FILE WAS UPDATED (5056551/2_br_prop_ts_hf.en.tmp) ****
             **** THE GBW FILE WAS UPDATED (5056551/2_br_prop_ts_hf.gbw) ****
             **** DENSITY 5056551/2_br_prop_ts_hf.scfp WAS UPDATED ****
----------------
ORBITAL ENERGIES
----------------

  NO   OCC          E(Eh)            E(eV) 
   0   2.0000    -489.802933    -13328.2154 
   1   2.0000     -64.946181     -1767.2754 
   2   2.0000     -58.300862     -1586.4471 
   3   2.0000     -58.300264     -1586.4308 
   4   2.0000     -58.300234     -1586.4300 
   5   2.0000     -20.255287      -551.1744 
   6   2.0000     -11.162430      -303.7452 
   7   2.0000     -11.093988      -301.8828 
   8   2.0000     -11.018658      -299.8329 
   9   2.0000      -9.619804      -261.7682 
  10   2.0000      -7.229560      -196.7263 
  11   2.0000      -7.226629      -196.6466 
  12   2.0000      -7.226511      -196.6434 
  13   2.0000      -2.970908       -80.8425 
  14   2.0000      -2.969618       -80.8074 
  15   2.0000      -2.969441       -80.8026 
  16   2.0000      -2.965804       -80.7036 
  17   2.0000      -2.965802       -80.7036 
  18   2.0000      -1.023611       -27.8539 
  19   2.0000      -0.948203       -25.8019 
  20   2.0000      -0.797427       -21.6991 
  21   2.0000      -0.781579       -21.2679 
  22   2.0000      -0.635464       -17.2919 
  23   2.0000      -0.498081       -13.5535 
  24   2.0000      -0.454746       -12.3743 
  25   2.0000      -0.438313       -11.9271 
  26   2.0000      -0.399242       -10.8639 
  27   2.0000      -0.377962       -10.2849 
  28   2.0000      -0.350516        -9.5380 
  29   2.0000      -0.336790        -9.1645 
  30   2.0000      -0.259983        -7.0745 
  31   2.0000      -0.224441        -6.1074 
  32   2.0000      -0.219983        -5.9861 
  33   2.0000      -0.210179        -5.7193 
  34   2.0000      -0.132784        -3.6132 
  35   0.0000       0.254567         6.9271 
  36   0.0000       0.284651         7.7457 
  37   0.0000       0.304541         8.2870 
  38   0.0000       0.313089         8.5196 
  39   0.0000       0.348445         9.4817 
  40   0.0000       0.352445         9.5905 
  41   0.0000       0.364666         9.9231 
  42   0.0000       0.383135        10.4256 
  43   0.0000       0.407958        11.1011 
  44   0.0000       0.436905        11.8888 
  45   0.0000       0.455118        12.3844 
  46   0.0000       0.473526        12.8853 
  47   0.0000       0.499951        13.6043 
  48   0.0000       0.508246        13.8301 
  49   0.0000       0.539481        14.6800 
  50   0.0000       0.542358        14.7583 
  51   0.0000       0.546925        14.8826 
  52   0.0000       0.558138        15.1877 
  53   0.0000       0.595537        16.2054 
  54   0.0000       0.616084        16.7645 
  55   0.0000       0.628503        17.1024 
  56   0.0000       0.652118        17.7450 
  57   0.0000       0.675735        18.3877 
  58   0.0000       0.694892        18.9090 
  59   0.0000       0.702824        19.1248 
  60   0.0000       0.725195        19.7336 
  61   0.0000       0.747833        20.3496 
  62   0.0000       0.757526        20.6133 
  63   0.0000       0.768903        20.9229 
  64   0.0000       0.775716        21.1083 
  65   0.0000       0.788140        21.4464 
  66   0.0000       0.809744        22.0343 
  67   0.0000       0.830103        22.5882 
  68   0.0000       0.837824        22.7983 
  69   0.0000       0.859803        23.3964 
  70   0.0000       0.885400        24.0930 
  71   0.0000       0.896934        24.4068 
  72   0.0000       0.908416        24.7193 
  73   0.0000       0.929314        25.2879 
  74   0.0000       0.959403        26.1067 
  75   0.0000       1.003249        27.2998 
  76   0.0000       1.021226        27.7890 
  77   0.0000       1.075978        29.2789 
  78   0.0000       1.136186        30.9172 
  79   0.0000       1.182177        32.1687 
  80   0.0000       1.196263        32.5520 
  81   0.0000       1.219733        33.1906 
  82   0.0000       1.265016        34.4228 
  83   0.0000       1.293601        35.2007 
  84   0.0000       1.345378        36.6096 
  85   0.0000       1.348073        36.6829 
  86   0.0000       1.373496        37.3747 
  87   0.0000       1.419298        38.6211 
  88   0.0000       1.438999        39.1572 
  89   0.0000       1.489512        40.5317 
  90   0.0000       1.499046        40.7911 
  91   0.0000       1.553761        42.2800 
  92   0.0000       1.584301        43.1110 
  93   0.0000       1.612569        43.8802 
  94   0.0000       1.743631        47.4466 
  95   0.0000       1.759912        47.8896 
  96   0.0000       1.798791        48.9476 
  97   0.0000       1.813203        49.3398 
  98   0.0000       1.818199        49.4757 
  99   0.0000       1.835237        49.9393 
 100   0.0000       1.840865        50.0925 
 101   0.0000       1.847611        50.2761 
 102   0.0000       1.902182        51.7610 
 103   0.0000       1.938649        52.7533 
 104   0.0000       1.944209        52.9046 
 105   0.0000       1.957429        53.2643 
 106   0.0000       1.983036        53.9611 
 107   0.0000       1.994669        54.2777 
 108   0.0000       2.015618        54.8478 
 109   0.0000       2.021190        54.9994 
 110   0.0000       2.037336        55.4387 
 111   0.0000       2.043522        55.6071 
 112   0.0000       2.045537        55.6619 
 113   0.0000       2.063924        56.1622 
 114   0.0000       2.073621        56.4261 
 115   0.0000       2.096696        57.0540 
 116   0.0000       2.112099        57.4731 
 117   0.0000       2.113971        57.5241 
 118   0.0000       2.127853        57.9018 
 119   0.0000       2.142409        58.2979 
 120   0.0000       2.158827        58.7447 
 121   0.0000       2.162055        58.8325 
 122   0.0000       2.216770        60.3214 
 123   0.0000       2.232967        60.7621 
 124   0.0000       2.336747        63.5861 
 125   0.0000       2.347130        63.8687 
 126   0.0000       2.404680        65.4347 
 127   0.0000       2.418903        65.8217 
 128   0.0000       2.474699        67.3400 
 129   0.0000       2.523041        68.6554 
 130   0.0000       2.536966        69.0344 
 131   0.0000       2.607214        70.9459 
 132   0.0000       2.622544        71.3630 
 133   0.0000       2.663733        72.4839 
 134   0.0000       2.666376        72.5558 
 135   0.0000       2.702631        73.5423 
 136   0.0000       2.713000        73.8245 
 137   0.0000       2.768134        75.3248 
 138   0.0000       2.774296        75.4924 
 139   0.0000       2.799565        76.1800 
 140   0.0000       2.872445        78.1632 
 141   0.0000       2.881137        78.3997 
 142   0.0000       2.904463        79.0345 
 143   0.0000       2.926842        79.6434 
 144   0.0000       2.939408        79.9854 
 145   0.0000       2.961159        80.5772 
 146   0.0000       3.008918        81.8768 
 147   0.0000       3.023339        82.2692 
 148   0.0000       3.060374        83.2770 
 149   0.0000       3.076063        83.7039 
 150   0.0000       3.096557        84.2616 
 151   0.0000       3.131968        85.2252 
 152   0.0000       3.163269        86.0769 
 153   0.0000       3.245409        88.3121 
 154   0.0000       3.287504        89.4575 
 155   0.0000       3.319450        90.3268 
 156   0.0000       3.331097        90.6438 
 157   0.0000       3.351695        91.2043 
 158   0.0000       3.379964        91.9735 
 159   0.0000       3.427296        93.2615 
 160   0.0000       3.512309        95.5748 
 161   0.0000       3.527533        95.9890 
 162   0.0000       3.540085        96.3306 
 163   0.0000       3.567784        97.0843 
 164   0.0000       3.575357        97.2904 
 165   0.0000       3.623164        98.5913 
 166   0.0000       3.643791        99.1526 
 167   0.0000       3.672813        99.9423 
 168   0.0000       3.725950       101.3883 
 169   0.0000       3.753683       102.1429 
 170   0.0000       3.766659       102.4960 
 171   0.0000       3.788063       103.0784 
 172   0.0000       3.818088       103.8955 
 173   0.0000       3.901200       106.1570 
 174   0.0000       3.916287       106.5676 
 175   0.0000       3.959113       107.7329 
 176   0.0000       4.021249       109.4237 
 177   0.0000       4.093876       111.4000 
 178   0.0000       4.119232       112.0900 
 179   0.0000       4.155965       113.0896 
 180   0.0000       4.215245       114.7027 
 181   0.0000       4.349843       118.3652 
 182   0.0000       4.436377       120.7200 
 183   0.0000       4.462117       121.4204 
 184   0.0000       4.484566       122.0312 
 185   0.0000       4.550127       123.8153 
 186   0.0000       4.577714       124.5659 
 187   0.0000       4.600979       125.1990 
 188   0.0000       4.621832       125.7664 
 189   0.0000       4.685354       127.4950 
 190   0.0000       4.689753       127.6147 
 191   0.0000       4.783485       130.1652 
 192   0.0000       4.819314       131.1402 
 193   0.0000       4.854849       132.1072 
 194   0.0000       4.885983       132.9544 
 195   0.0000       4.927450       134.0827 
 196   0.0000       4.941386       134.4619 
 197   0.0000       5.035319       137.0180 
 198   0.0000       5.132046       139.6501 
 199   0.0000       5.136355       139.7673 
 200   0.0000       5.287353       143.8762 
 201   0.0000       5.323436       144.8581 
 202   0.0000       5.372535       146.1941 
 203   0.0000       5.844293       159.0313 
 204   0.0000       5.915503       160.9690 
 205   0.0000       5.978184       162.6747 
 206   0.0000       6.091008       165.7448 
 207   0.0000       6.157666       167.5586 
 208   0.0000       6.580953       179.0768 
 209   0.0000       7.040947       191.5939 
 210   0.0000       7.133000       194.0988 
 211   0.0000       7.160527       194.8478 
 212   0.0000       7.268700       197.7914 
 213   0.0000       7.514240       204.4729 
 214   0.0000       7.852859       213.6872 
 215   0.0000       8.358179       227.4376 
 216   0.0000      23.531335       640.3202 
 217   0.0000      23.617088       642.6536 
 218   0.0000      23.868955       649.5073 
 219   0.0000      45.323298      1233.3096 

                    ********************************
                    * MULLIKEN POPULATION ANALYSIS *
                    ********************************

-----------------------
MULLIKEN ATOMIC CHARGES
-----------------------
   0 C :    0.168026
   1 H :    0.105983
   2 C :   -0.425378
   3 H :    0.060387
   4 H :    0.350874
   5 C :   -0.275428
   6 H :    0.116260
   7 H :    0.099268
   8 H :    0.100518
   9 Br:   -0.617472
  10 H :    0.052123
  11 O :   -0.961523
  12 H :    0.226362
Sum of atomic charges:   -1.0000000

--------------------------------
MULLIKEN REDUCED ORBITAL CHARGES
--------------------------------
  0 C s       :     3.093254  s :     3.093254
      pz      :     1.035253  p :     2.556115
      px      :     0.692578
      py      :     0.828283
      dz2     :     0.049494  d :     0.173505
      dxz     :     0.028532
      dyz     :     0.036513
      dx2y2   :     0.009736
      dxy     :     0.049229
      f0      :     0.001907  f :     0.009100
      f+1     :     0.001590
      f-1     :     0.001813
      f+2     :     0.000992
      f-2     :     0.001520
      f+3     :     0.000653
      f-3     :     0.000625
  1 H s       :     0.871385  s :     0.871385
      pz      :     0.003410  p :     0.022632
      px      :     0.008088
      py      :     0.011134
  2 C s       :     3.168885  s :     3.168885
      pz      :     0.923886  p :     3.184683
      px      :     1.211943
      py      :     1.048853
      dz2     :     0.020710  d :     0.066874
      dxz     :     0.005676
      dyz     :     0.017024
      dx2y2   :     0.003877
      dxy     :     0.019587
      f0      :     0.000781  f :     0.004936
      f+1     :     0.000413
      f-1     :     0.001860
      f+2     :     0.000408
      f-2     :     0.000399
      f+3     :     0.000197
      f-3     :     0.000879
  3 H s       :     0.916999  s :     0.916999
      pz      :     0.010989  p :     0.022614
      px      :     0.005049
      py      :     0.006576
  4 H s       :     0.585750  s :     0.585750
      pz      :     0.005125  p :     0.063376
      px      :     0.035552
      py      :     0.022698
  5 C s       :     3.176488  s :     3.176488
      pz      :     0.950347  p :     3.013941
      px      :     1.052696
      py      :     1.010898
      dz2     :     0.022361  d :     0.080421
      dxz     :     0.006892
      dyz     :     0.020975
      dx2y2   :     0.005097
      dxy     :     0.025096
      f0      :     0.000797  f :     0.004578
      f+1     :     0.000389
      f-1     :     0.001615
      f+2     :     0.000350
      f-2     :     0.000406
      f+3     :     0.000133
      f-3     :     0.000889
  6 H s       :     0.862449  s :     0.862449
      pz      :     0.003725  p :     0.021291
      px      :     0.009190
      py      :     0.008375
  7 H s       :     0.879290  s :     0.879290
      pz      :     0.009543  p :     0.021441
      px      :     0.003626
      py      :     0.008272
  8 H s       :     0.877851  s :     0.877851
      pz      :     0.003397  p :     0.021631
      px      :     0.012022
      py      :     0.006212
  9 Brs       :     7.943286  s :     7.943286
      pz      :     5.993587  p :    17.649498
      px      :     5.754235
      py      :     5.901675
      dz2     :     2.004319  d :    10.022462
      dxz     :     2.001509
      dyz     :     2.001702
      dx2y2   :     2.003797
      dxy     :     2.011135
      f0      :     0.000164  f :     0.002226
      f+1     :     0.000358
      f-1     :     0.000195
      f+2     :     0.000065
      f-2     :     0.000276
      f+3     :     0.000448
      f-3     :     0.000720
 10 H s       :     0.925312  s :     0.925312
      pz      :     0.003095  p :     0.022565
      px      :     0.010492
      py      :     0.008978
 11 O s       :     3.850388  s :     3.850388
      pz      :     1.436693  p :     5.091592
      px      :     1.840581
      py      :     1.814317
      dz2     :     0.008468  d :     0.018427
      dxz     :     0.002787
      dyz     :     0.003287
      dx2y2   :     0.000878
      dxy     :     0.003007
      f0      :     0.000295  f :     0.001116
      f+1     :     0.000173
      f-1     :     0.000444
      f+2     :     0.000042
      f-2     :     0.000057
      f+3     :     0.000011
      f-3     :     0.000094
 12 H s       :     0.721508  s :     0.721508
      pz      :     0.018111  p :     0.052130
      px      :     0.016016
      py      :     0.018002


                     *******************************
                     * LOEWDIN POPULATION ANALYSIS *
                     *******************************

----------------------
LOEWDIN ATOMIC CHARGES
----------------------
   0 C :   -0.262596
   1 H :    0.138490
   2 C :   -0.366921
   3 H :    0.100811
   4 H :    0.153940
   5 C :   -0.310892
   6 H :    0.120625
   7 H :    0.109092
   8 H :    0.116936
   9 Br:   -0.243977
  10 H :    0.101256
  11 O :   -0.710927
  12 H :    0.054164

-------------------------------
LOEWDIN REDUCED ORBITAL CHARGES
-------------------------------
  0 C s       :     2.822466  s :     2.822466
      pz      :     1.116355  p :     2.829251
      px      :     0.785720
      py      :     0.927176
      dz2     :     0.164010  d :     0.559721
      dxz     :     0.093097
      dyz     :     0.118000
      dx2y2   :     0.034355
      dxy     :     0.150258
      f0      :     0.011623  f :     0.051158
      f+1     :     0.009575
      f-1     :     0.007406
      f+2     :     0.006920
      f-2     :     0.008846
      f+3     :     0.002907
      f-3     :     0.003881
  1 H s       :     0.805235  s :     0.805235
      pz      :     0.010696  p :     0.056275
      px      :     0.020143
      py      :     0.025435
  2 C s       :     2.827560  s :     2.827560
      pz      :     1.028980  p :     3.229617
      px      :     1.123687
      py      :     1.076949
      dz2     :     0.095474  d :     0.281563
      dxz     :     0.023883
      dyz     :     0.078452
      dx2y2   :     0.014349
      dxy     :     0.069403
      f0      :     0.005632  f :     0.028182
      f+1     :     0.003294
      f-1     :     0.007474
      f+2     :     0.004388
      f-2     :     0.002716
      f+3     :     0.001281
      f-3     :     0.003397
  3 H s       :     0.836461  s :     0.836461
      pz      :     0.025126  p :     0.062728
      px      :     0.016880
      py      :     0.020721
  4 H s       :     0.630124  s :     0.630124
      pz      :     0.013202  p :     0.215936
      px      :     0.126839
      py      :     0.075895
  5 C s       :     2.826995  s :     2.826995
      pz      :     1.033123  p :     3.156940
      px      :     1.064390
      py      :     1.059428
      dz2     :     0.086186  d :     0.301435
      dxz     :     0.031546
      dyz     :     0.082938
      dx2y2   :     0.016640
      dxy     :     0.084125
      f0      :     0.005174  f :     0.025521
      f+1     :     0.004380
      f-1     :     0.005312
      f+2     :     0.004176
      f-2     :     0.002413
      f+3     :     0.000975
      f-3     :     0.003091
  6 H s       :     0.819892  s :     0.819892
      pz      :     0.011759  p :     0.059483
      px      :     0.025324
      py      :     0.022399
  7 H s       :     0.832213  s :     0.832213
      pz      :     0.023552  p :     0.058695
      px      :     0.012196
      py      :     0.022947
  8 H s       :     0.824380  s :     0.824380
      pz      :     0.010766  p :     0.058683
      px      :     0.030577
      py      :     0.017340
  9 Brs       :     7.739227  s :     7.739227
      pz      :     5.932892  p :    17.436347
      px      :     5.681385
      py      :     5.822070
      dz2     :     2.008492  d :    10.064282
      dxz     :     2.008180
      dyz     :     2.010164
      dx2y2   :     2.010004
      dxy     :     2.027442
      f0      :     0.000379  f :     0.004121
      f+1     :     0.000597
      f-1     :     0.000281
      f+2     :     0.000118
      f-2     :     0.000618
      f+3     :     0.000882
      f-3     :     0.001247
 10 H s       :     0.835969  s :     0.835969
      pz      :     0.010141  p :     0.062775
      px      :     0.029634
      py      :     0.023000
 11 O s       :     3.601496  s :     3.601496
      pz      :     1.512268  p :     5.077718
      px      :     1.784192
      py      :     1.781258
      dz2     :     0.013354  d :     0.029648
      dxz     :     0.002840
      dyz     :     0.005078
      dx2y2   :     0.001054
      dxy     :     0.007322
      f0      :     0.000488  f :     0.002065
      f+1     :     0.000314
      f-1     :     0.000792
      f+2     :     0.000026
      f-2     :     0.000082
      f+3     :     0.000038
      f-3     :     0.000325
 12 H s       :     0.754354  s :     0.754354
      pz      :     0.080837  p :     0.191482
      px      :     0.053263
      py      :     0.057382


                      *****************************
                      * MAYER POPULATION ANALYSIS *
                      *****************************

  NA   - Mulliken gross atomic population
  ZA   - Total nuclear charge
  QA   - Mulliken gross atomic charge
  VA   - Mayer's total valence
  BVA  - Mayer's bonded valence
  FA   - Mayer's free valence

  ATOM       NA         ZA         QA         VA         BVA        FA
  0 C      5.8320     6.0000     0.1680     3.7881     3.7881     0.0000
  1 H      0.8940     1.0000     0.1060     0.9678     0.9678     0.0000
  2 C      6.4254     6.0000    -0.4254     3.6362     3.6362    -0.0000
  3 H      0.9396     1.0000     0.0604     0.9761     0.9761    -0.0000
  4 H      0.6491     1.0000     0.3509     0.9573     0.9573     0.0000
  5 C      6.2754     6.0000    -0.2754     3.8868     3.8868    -0.0000
  6 H      0.8837     1.0000     0.1163     0.9731     0.9731    -0.0000
  7 H      0.9007     1.0000     0.0993     0.9784     0.9784    -0.0000
  8 H      0.8995     1.0000     0.1005     0.9896     0.9896    -0.0000
  9 Br    35.6175    35.0000    -0.6175     0.5989     0.5989     0.0000
 10 H      0.9479     1.0000     0.0521     0.9777     0.9777    -0.0000
 11 O      8.9615     8.0000    -0.9615     1.3076     1.3076    -0.0000
 12 H      0.7736     1.0000     0.2264     0.9815     0.9815     0.0000

  Mayer bond orders larger than 0.100000
B(  0-C ,  1-H ) :   0.9671 B(  0-C ,  2-C ) :   1.2057 B(  0-C ,  5-C ) :   0.9871 
B(  0-C ,  9-Br) :   0.5685 B(  2-C ,  3-H ) :   0.9687 B(  2-C ,  4-H ) :   0.5548 
B(  2-C , 10-H ) :   0.9618 B(  4-H , 11-O ) :   0.3757 B(  5-C ,  6-H ) :   0.9566 
B(  5-C ,  7-H ) :   0.9885 B(  5-C ,  8-H ) :   0.9864 B( 11-O , 12-H ) :   0.9698 


-------
TIMINGS
-------

Total SCF time: 0 days 0 hours 1 min 45 sec 

Total time                  ....     105.181 sec
Sum of individual times     ....     104.709 sec  ( 99.6%)

Fock matrix formation       ....     103.875 sec  ( 98.8%)
Diagonalization             ....       0.085 sec  (  0.1%)
Density matrix formation    ....       0.009 sec  (  0.0%)
Population analysis         ....       0.028 sec  (  0.0%)
Initial guess               ....       0.371 sec  (  0.4%)
Orbital Transformation      ....       0.000 sec  (  0.0%)
Orbital Orthonormalization  ....       0.000 sec  (  0.0%)
DIIS solution               ....       0.067 sec  (  0.1%)
SOSCF solution              ....       0.063 sec  (  0.1%)

Maximum memory used throughout the entire SCF-calculation: 282.7 MB

-------------------------   --------------------
FINAL SINGLE POINT ENERGY     -2765.553579870523
-------------------------   --------------------

------------------------------------------------------------------------------
                         ORCA SCF GRADIENT CALCULATION
------------------------------------------------------------------------------

Gradient of the Hartree-Fock SCF energy:
Hartree-Fock type                ... RHF
Number of operators              ...    1
Number of atoms                  ...   13
Basis set dimensions             ...  220
Integral neglect threshold       ... 2.5e-11
Integral primitive cutoff        ... 2.5e-12
SHARK Integral package           ... ON

Nuc. rep. gradient       (SHARK) ... done (  0.0 sec)
HCore & Overlap gradient (SHARK) ... done (  0.2 sec)
Two-Electron gradient    (SHARK) ... done ( 42.8 sec)

------------------
CARTESIAN GRADIENT
------------------

   1   C   :    0.010005283   -0.022233092   -0.000295114
   2   H   :    0.009508664    0.018436728    0.000113772
   3   C   :    0.006509555    0.008463788    0.027377663
   4   H   :    0.002889707   -0.000568903   -0.008405135
   5   H   :   -0.017613852    0.004728963   -0.010425150
   6   C   :   -0.007221138    0.017157057   -0.027426015
   7   H   :    0.003560681   -0.004487467    0.004738475
   8   H   :   -0.002151032    0.007882321    0.008440149
   9   H   :   -0.011421756   -0.005471837    0.002586272
  10   Br  :    0.015352644   -0.024303935    0.001375030
  11   H   :   -0.000627090   -0.009387771   -0.004869009
  12   O   :   -0.004247485    0.003515297    0.000340331
  13   H   :   -0.004544181    0.006268851    0.006448731

Difference to translation invariance:
           :    0.0000000002    0.0000000001    0.0000000000

Difference to rotation invariance:
           :   -0.0000002021   -0.0000002244   -0.0000002235

Norm of the cartesian gradient     ...    0.0702894375
RMS gradient                       ...    0.0112553179
MAX gradient                       ...    0.0274260152

-------
TIMINGS
-------

Total SCF gradient time            ...       43.234 sec

One electron gradient       ....       0.246 sec  (  0.6%)
Two electron gradient       ....      42.817 sec  ( 99.0%)

Maximum memory used throughout the entire SCFGRAD-calculation: 86.3 MB
------------------------------------------------------------------------------
                         ORCA GEOMETRY RELAXATION STEP
------------------------------------------------------------------------------

Reading the OPT-File                    .... done
Getting information on internals        .... done
Copying old internal coords+grads       .... done
Making the new internal coordinates     .... (new redundants).... done
Validating the new internal coordinates .... (new redundants).... done
Calculating the B-matrix                .... done
Calculating the G,G- and P matrices     .... done
Transforming gradient to internals      .... done
Projecting the internal gradient        .... done
Number of atoms                         ....  13
Number of internal coordinates          ....  54
Current Energy                          .... -2765.553579871 Eh
Current gradient norm                   ....     0.070289438 Eh/bohr
Maximum allowed component of the step   ....  0.300
Current trust radius                    ....  0.300
Evaluating the initial hessian          ....  (Almloef) done
Projecting the Hessian                  .... done
Diagonalizing the Hessian               .... done
Dimension of the hessian                ....  54
Lowest eigenvalues of the Hessian:
  0.001503666  0.015343181  0.026524802  0.051258103  0.090048284
Hessian has   0 negative eigenvalues
Taking P-RFO step
Searching for lambda that maximizes along the lowest mode
TS mode is mode number   0 with eigenvalue   0.00150367 and components:
   1.   -0.00000000
   2.    0.00000000
   3.    0.00000000
   4.   -0.00000000
   5.    0.00000000
   6.   -0.00000000
   7.    0.00000000
   8.    0.00000000
   9.   -0.00000000
  10.   -0.00000000
  11.    0.00000000
  12.    0.00000000
  13.   -0.00000000
  14.   -0.00000000
  15.    0.00000000
  16.   -0.00000000
  17.   -0.00000000
  18.   -0.00000000
  19.   -0.00000000
  20.    0.00000000
  21.    0.00000000
  22.    0.00000000
  23.   -0.00000000
  24.   -0.00000000
  25.    0.00000000
  26.    0.00000000
  27.    0.00000000
  28.   -0.00000000
  29.    0.00000000
  30.    0.00000000
  31.   -0.00000000
  32.   -0.00000000
  33.   -0.00000000
  34.   -0.00000000
  35.   -0.00000000
  36.   -0.00000000
  37.   -0.00000000
  38.   -0.00000000
  39.   -0.00000000
  40.   -0.00000000
  41.   -0.00000000
  42.   -0.00000000
  43.   -0.00000000
  44.   -0.00000000
  45.   -0.00000000
  46.   -0.00000000
  47.   -0.00000000
  48.   -0.00000000
  49.   -0.00000000
  50.   -0.00000000
  51.   -0.00000000
  52.   -0.57735027
  53.   -0.57735027
  54.   -0.57735027

Lambda that maximizes along the TS mode:       0.00150468
Searching for lambda that minimizes along all other modes
In cycle   1: lambdaN =  -0.02361137   step =   0.02361137
In cycle   2: lambdaN =  -0.02526908   step =   0.00165771
In cycle   3: lambdaN =  -0.02527341   step =   0.00000433
In cycle   4: lambdaN =  -0.02527341   step =   0.00000000
Lambda that minimizes along all other modes:  -0.02527341
Calculated stepsize too large (   0.6804 >    0.3000). Scaled with    0.4409.
The final length of the internal step   ....       0.3000
Converting the step to cartesian space:
 Initial RMS(Int)=    0.0408248290
Transforming coordinates:
 Iter   0:  RMS(Cart)=    0.0594093282 RMS(Int)=    0.0407066996
 Iter   1:  RMS(Cart)=    0.0025482235 RMS(Int)=    0.8547965456
 Iter   2:  RMS(Cart)=    0.0002501745 RMS(Int)=    0.0002463422
 Iter   3:  RMS(Cart)=    0.0000331320 RMS(Int)=    0.0000308308
 Iter   4:  RMS(Cart)=    0.0000039924 RMS(Int)=    0.0000039357
 Iter   5:  RMS(Cart)=    0.0000005467 RMS(Int)=    0.0000004884
 Iter   6:  RMS(Cart)=    0.0000000567 RMS(Int)=    0.0000000655
done
Storing new coordinates                 .... done

                                .--------------------.
          ----------------------|Geometry convergence|-------------------------
          Item                value                   Tolerance       Converged
          ---------------------------------------------------------------------
          RMS gradient        0.0091347733            0.0001000000      NO
          MAX gradient        0.0293890509            0.0003000000      NO
          RMS step            0.0408248290            0.0020000000      NO
          MAX step            0.1322817195            0.0040000000      NO
          ........................................................
          Max(Bonds)      0.0537      Max(Angles)    2.61
          Max(Dihed)        7.58      Max(Improp)    0.00
          ---------------------------------------------------------------------

The optimization has not yet converged - more geometry cycles are needed


    ---------------------------------------------------------------------------
                         Redundant Internal Coordinates
                            (Angstroem and degrees)

        Definition                    Value    dE/dq     Step     New-Value  comp.(TS mode)
    ----------------------------------------------------------------------------
     1. B(H   1,C   0)                1.1016  0.020108 -0.0127    1.0889   
     2. B(C   2,C   0)                1.4124 -0.013324  0.0052    1.4175   
     3. B(H   3,C   2)                1.0920  0.006816 -0.0042    1.0879   
     4. B(H   4,C   2)                1.2303 -0.029389  0.0285    1.2589   
     5. B(C   5,C   0)                1.4850 -0.014518  0.0073    1.4923   
     6. B(H   6,C   5)                1.0994  0.006408 -0.0040    1.0954   
     7. B(H   7,C   5)                1.0969  0.011603 -0.0072    1.0897   
     8. B(H   8,C   5)                1.0984  0.012642 -0.0079    1.0905   
     9. B(Br  9,C   0)                2.2473 -0.026546  0.0537    2.3010   
    10. B(H  10,C   2)                1.0925  0.006706 -0.0041    1.0884   
    11. B(O  11,H   4)                1.3329 -0.013357  0.0198    1.3527   
    12. B(H  12,O  11)                0.9387 -0.007188  0.0029    0.9415   
    13. A(H   1,C   0,C   2)          117.61 -0.000955   -0.66    116.96   
    14. A(C   2,C   0,Br  9)          105.88 -0.003961    1.48    107.36   
    15. A(C   2,C   0,C   5)          119.63  0.007795   -0.52    119.11   
    16. A(C   5,C   0,Br  9)           94.15 -0.014422    2.61     96.76   
    17. A(H   1,C   0,C   5)          116.32 -0.001120   -0.55    115.77   
    18. A(H   1,C   0,Br  9)           95.19  0.006761   -0.66     94.53   
    19. A(H   3,C   2,H  10)          110.86 -0.002893    0.15    111.01   
    20. A(C   0,C   2,H   4)          106.35  0.005947   -0.38    105.97   
    21. A(C   0,C   2,H   3)          115.76  0.002185   -0.31    115.46   
    22. A(H   4,C   2,H  10)          102.59 -0.006969    0.74    103.33   
    23. A(C   0,C   2,H  10)          116.44  0.005216   -0.57    115.86   
    24. A(H   3,C   2,H   4)          102.83 -0.005639    0.66    103.49   
    25. L(C   2,H   4,O  11,C   0, 2) 179.90  0.000057   -0.01    179.89   
    26. L(C   2,H   4,O  11,C   0, 1) 178.99 -0.004282    0.36    179.36   
    27. A(C   0,C   5,H   6)          110.22  0.005571   -0.48    109.73   
    28. A(H   7,C   5,H   8)          107.38 -0.001846    0.31    107.69   
    29. A(H   6,C   5,H   8)          107.90 -0.002327    0.03    107.93   
    30. A(C   0,C   5,H   8)          111.37  0.001954   -0.13    111.24   
    31. A(H   6,C   5,H   7)          108.29 -0.001592    0.09    108.39   
    32. A(C   0,C   5,H   7)          111.54 -0.002060    0.20    111.74   
    33. A(H   4,O  11,H  12)           96.67 -0.012526    1.10     97.77   
    34. D(H  10,C   2,C   0,H   1)   -171.53 -0.000017   -0.71   -172.24   
    35. D(H   3,C   2,C   0,C   5)    170.59 -0.007908    2.33    172.91   
    36. D(H   4,C   2,C   0,H   1)     74.92  0.001832   -1.06     73.86   
    37. D(H  10,C   2,C   0,C   5)     37.63 -0.011649    3.08     40.70   
    38. D(H   3,C   2,C   0,Br  9)     66.20  0.009041   -1.63     64.57   
    39. D(H   4,C   2,C   0,Br  9)    179.69  0.007150   -1.24    178.45   
    40. D(H   3,C   2,C   0,H   1)    -38.57  0.003724   -1.46    -40.03   
    41. D(H  10,C   2,C   0,Br  9)    -66.76  0.005300   -0.88    -67.64   
    42. D(H   4,C   2,C   0,C   5)    -75.92 -0.009800    2.72    -73.20   
    43. D(H   7,C   5,C   0,C   2)   -167.99  0.008805   -2.63   -170.62   
    44. D(H   7,C   5,C   0,H   1)     40.81 -0.002684    1.14     41.95   
    45. D(H   6,C   5,C   0,Br  9)   -177.40 -0.003167    0.71   -176.69   
    46. D(H   6,C   5,C   0,C   2)     71.68  0.008419   -2.55     69.13   
    47. D(H   7,C   5,C   0,Br  9)    -57.07 -0.002781    0.63    -56.44   
    48. D(H   6,C   5,C   0,H   1)    -79.52 -0.003070    1.22    -78.31   
    49. D(H   8,C   5,C   0,Br  9)     62.87 -0.005196    1.08     63.95   
    50. D(H   8,C   5,C   0,C   2)    -48.04  0.006390   -2.18    -50.22   
    51. D(H   8,C   5,C   0,H   1)    160.75 -0.005099    1.58    162.34   
    52. D(H  12,O  11,C   2,H  10)     64.99 -0.003914   -7.58     57.41          0.58
    53. D(H  12,O  11,C   2,H   3)    -50.37  0.002933   -7.58    -57.95          0.58
    54. D(H  12,O  11,C   2,C   0)   -172.38  0.000913   -7.58   -179.96          0.58
    ----------------------------------------------------------------------------

         *************************************************************
         *                GEOMETRY OPTIMIZATION CYCLE   2            *
         *************************************************************
---------------------------------
CARTESIAN COORDINATES (ANGSTROEM)
---------------------------------
  C      1.044003   -0.539422   -0.021958
  H      1.774350    0.268283   -0.023528
  C      0.885334   -1.263516   -1.230232
  H      0.907418   -0.667398   -2.139950
  H      1.905632   -1.993592   -1.333795
  C      0.867293   -1.250581    1.278040
  H      1.690569   -1.957508    1.427808
  H      0.852367   -0.557260    2.118650
  H     -0.066339   -1.813806    1.296463
  Br    -0.772576    0.857720    0.184590
  H      0.063733   -1.977015   -1.253950
  O      3.006119   -2.774059   -1.431999
  H      2.792097   -3.193845   -2.247140

----------------------------
CARTESIAN COORDINATES (A.U.)
----------------------------
  NO LB      ZA    FRAG     MASS         X           Y           Z
   0 C     6.0000    0    12.011    1.972879   -1.019359   -0.041495
   1 H     1.0000    0     1.008    3.353036    0.506982   -0.044461
   2 C     6.0000    0    12.011    1.673038   -2.387699   -2.324802
   3 H     1.0000    0     1.008    1.714771   -1.261199   -4.043919
   4 H     1.0000    0     1.008    3.601122   -3.767343   -2.520507
   5 C     6.0000    0    12.011    1.638946   -2.363256    2.415146
   6 H     1.0000    0     1.008    3.194713   -3.699155    2.698167
   7 H     1.0000    0     1.008    1.610739   -1.053069    4.003668
   8 H     1.0000    0     1.008   -0.125362   -3.427597    2.449960
   9 Br   35.0000    0    79.900   -1.459956    1.620855    0.348825
  10 H     1.0000    0     1.008    0.120438   -3.736018   -2.369622
  11 O     8.0000    0    15.999    5.680741   -5.242212   -2.706086
  12 H     1.0000    0     1.008    5.276300   -6.035493   -4.246480

--------------------------------
INTERNAL COORDINATES (ANGSTROEM)
--------------------------------
 C      0   0   0     0.000000000000     0.00000000     0.00000000
 H      1   0   0     1.088943204548     0.00000000     0.00000000
 C      1   2   0     1.417537983944   116.91895118     0.00000000
 H      3   1   2     1.087855861492   115.50647894   319.97259580
 H      3   1   2     1.258866563096   106.00046529    73.85492507
 C      1   2   3     1.492303787873   115.73114107   148.16509523
 H      6   1   2     1.095427108824   109.73359954   281.68849323
 H      6   1   2     1.089743430946   111.74075679    41.94007305
 H      6   1   2     1.090518104509   111.23670121   162.33129624
 Br     1   2   3     2.301004843331    94.54559824   247.91538656
 H      3   1   2     1.088426578960   115.97124789   187.78574891
 O      5   3   1     1.352717240186   179.39446439     6.56860874
 H     12   5   3     0.941531145257    97.76825754   173.42296239

---------------------------
INTERNAL COORDINATES (A.U.)
---------------------------
 C      0   0   0     0.000000000000     0.00000000     0.00000000
 H      1   0   0     2.057804431990     0.00000000     0.00000000
 C      1   2   0     2.678758574085   116.91895118     0.00000000
 H      3   1   2     2.055749651400   115.50647894   319.97259580
 H      3   1   2     2.378913043402   106.00046529    73.85492507
 C      1   2   3     2.820045467694   115.73114107   148.16509523
 H      6   1   2     2.070057235350   109.73359954   281.68849323
 H      6   1   2     2.059316640728   111.74075679    41.94007305
 H      6   1   2     2.060780561604   111.23670121   162.33129624
 Br     1   2   3     4.348268986722    94.54559824   247.91538656
 H      3   1   2     2.056828151114   115.97124789   187.78574891
 O      5   3   1     2.556265120585   179.39446439     6.56860874
 H     12   5   3     1.779236011094    97.76825754   173.42296239

------------------------------------------------------------------------------
                   ___                                                        
                  /   \      - P O W E R E D   B Y -                         
                 /     \                                                     
                 |  |  |   _    _      __       _____    __    __             
                 |  |  |  | |  | |    /  \     |  _  \  |  |  /  |          
                  \  \/   | |  | |   /    \    | | | |  |  | /  /          
                 / \  \   | |__| |  /  /\  \   | |_| |  |  |/  /          
                |  |  |   |  __  | /  /__\  \  |    /   |      \           
                |  |  |   | |  | | |   __   |  |    \   |  |\   \          
                \     /   | |  | | |  |  |  |  | |\  \  |  | \   \       
                 \___/    |_|  |_| |__|  |__|  |_| \__\ |__|  \__/        
                                                                              
                      - O R C A' S   B I G   F R I E N D -                    
                                      &                                       
                       - I N T E G R A L  F E E D E R -                       
                                                                              
 v1 FN, 2020, v2 2021                                                         
------------------------------------------------------------------------------


Reading SHARK input file 5056551/2_br_prop_ts_hf.SHARKINP.tmp ... ok
----------------------
SHARK INTEGRAL PACKAGE
----------------------

Number of atoms                             ...     13
Number of basis functions                   ...    220
Number of shells                            ...     92
Maximum angular momentum                    ...      3
Integral batch strategy                     ... SHARK/LIBINT Hybrid
RI-J (if used) integral strategy            ... SPLIT-RIJ (Revised 2003 algorithm where possible)
Printlevel                                  ...      1
Contraction scheme used                     ... SEGMENTED contraction
Coulomb Range Separation                    ... NOT USED
Exchange Range Separation                   ... NOT USED
Finite Nucleus Model                        ... NOT USED
Auxiliary Coulomb fitting basis             ... NOT available
Auxiliary J/K fitting basis                 ... NOT available
Auxiliary Correlation fitting basis         ... NOT available
Auxiliary 'external' fitting basis          ... NOT available
Integral threshold                          ...     2.500000e-11
Primitive cut-off                           ...     2.500000e-12
Primitive pair pre-selection threshold      ...     2.500000e-12

Calculating pre-screening integrals         ... done (  0.1 sec) Dimension = 92
Organizing shell pair data                  ... done (  0.1 sec)
Shell pair information
Total number of shell pairs                 ...      4278
Shell pairs after pre-screening             ...      3901
Total number of primitive shell pairs       ...     14206
Primitive shell pairs kept                  ...      9653
          la=0 lb=0:   1137 shell pairs
          la=1 lb=0:   1147 shell pairs
          la=1 lb=1:    306 shell pairs
          la=2 lb=0:    542 shell pairs
          la=2 lb=1:    278 shell pairs
          la=2 lb=2:     72 shell pairs
          la=3 lb=0:    231 shell pairs
          la=3 lb=1:    118 shell pairs
          la=3 lb=2:     56 shell pairs
          la=3 lb=3:     14 shell pairs

Calculating one electron integrals          ... done (  0.0 sec)
Calculating Nuclear repulsion               ... done (  0.0 sec) ENN=    312.635628673539 Eh

SHARK setup successfully completed in   0.3 seconds

Maximum memory used throughout the entire GTOINT-calculation: 57.8 MB

Diagonalization of the overlap matrix:
Smallest eigenvalue                        ... 2.309e-04
Time for diagonalization                   ...    0.005 sec
Threshold for overlap eigenvalues          ... 1.000e-08
Number of eigenvalues below threshold      ... 0
Time for construction of square roots      ...    0.011 sec
Total time needed                          ...    0.016 sec

--------------
SCF ITERATIONS
--------------
ITER       Energy         Delta-E        Max-DP      RMS-DP      [F,P]     Damp
               ***  Starting incremental Fock matrix formation  ***
  0  -2765.5585300142   0.000000000000 0.00578751  0.00012987  0.0391261 0.7000
                      *** Initiating the SOSCF procedure ***
                      *** Re-Reading the Fockian *** 
                      *** Removing any level shift *** 
ITER      Energy       Delta-E        Grad      Rot      Max-DP    RMS-DP
  1  -2765.55935325  -0.0008232365  0.002261  0.002261  0.017913  0.000407
               *** Restarting incremental Fock matrix formation ***
  2  -2765.56192762  -0.0025743713  0.002968  0.003311  0.007439  0.000168
  3  -2765.56221929  -0.0002916694  0.001229  0.003261  0.004947  0.000130
  4  -2765.56228579  -0.0000665007  0.000215  0.000740  0.000828  0.000022
  5  -2765.56228888  -0.0000030887  0.000116  0.000437  0.000555  0.000013
  6  -2765.56228981  -0.0000009298  0.000024  0.000077  0.000122  0.000003
  7  -2765.56228986  -0.0000000463  0.000013  0.000019  0.000069  0.000001
  8  -2765.56228986  -0.0000000071  0.000004  0.000010  0.000013  0.000000
                  ***Gradient check signals convergence***
              ***Rediagonalizing the Fockian in SOSCF/NRSCF***

               *****************************************************
               *                     SUCCESS                       *
               *           SCF CONVERGED AFTER   9 CYCLES          *
               *****************************************************

Total Energy       :        -2765.56228986 Eh          -75254.77579 eV
  Last Energy change         ...   -4.1882e-10  Tolerance :   1.0000e-08
  Last MAX-Density change    ...    5.3476e-06  Tolerance :   1.0000e-07
             **** THE GBW FILE WAS UPDATED (5056551/2_br_prop_ts_hf.gbw) ****
             **** DENSITY 5056551/2_br_prop_ts_hf.scfp WAS UPDATED ****
             **** ENERGY FILE WAS UPDATED (5056551/2_br_prop_ts_hf.en.tmp) ****
             **** THE GBW FILE WAS UPDATED (5056551/2_br_prop_ts_hf.gbw) ****
             **** DENSITY 5056551/2_br_prop_ts_hf.scfp WAS UPDATED ****
Total SCF time: 0 days 0 hours 1 min 5 sec 

Maximum memory used throughout the entire SCF-calculation: 282.2 MB

-------------------------   --------------------
FINAL SINGLE POINT ENERGY     -2765.562289864386
-------------------------   --------------------

------------------------------------------------------------------------------
                         ORCA SCF GRADIENT CALCULATION
------------------------------------------------------------------------------

Gradient of the Hartree-Fock SCF energy:
Hartree-Fock type                ... RHF
Number of operators              ...    1
Number of atoms                  ...   13
Basis set dimensions             ...  220
Integral neglect threshold       ... 2.5e-11
Integral primitive cutoff        ... 2.5e-12
SHARK Integral package           ... ON

Nuc. rep. gradient       (SHARK) ... done (  0.0 sec)
HCore & Overlap gradient (SHARK) ... done (  0.2 sec)
Two-Electron gradient    (SHARK) ... done ( 41.3 sec)

------------------
CARTESIAN GRADIENT
------------------

   1   C   :    0.004722362   -0.007394643    0.000574414
   2   H   :    0.006853574    0.009914073    0.000158793
   3   C   :    0.003169665    0.006076402    0.019499205
   4   H   :    0.002032457   -0.001091333   -0.005796696
   5   H   :   -0.016394298    0.003556145   -0.009383330
   6   C   :   -0.004075046    0.009553965   -0.017344360
   7   H   :    0.002183061   -0.003702011    0.004779200
   8   H   :   -0.001121500    0.003693069    0.005253183
   9   H   :   -0.006077796   -0.003163717    0.002280227
  10   Br  :    0.008288033   -0.014771881   -0.000496858
  11   H   :    0.000443723   -0.006259813   -0.004066807
  12   O   :    0.004316956   -0.001181519    0.001762248
  13   H   :   -0.004341190    0.004771264    0.002780778

Difference to translation invariance:
           :    0.0000000001   -0.0000000001   -0.0000000000

Difference to rotation invariance:
           :    0.0000003052   -0.0000004856   -0.0000010447

Norm of the cartesian gradient     ...    0.0449264641
RMS gradient                       ...    0.0071939918
MAX gradient                       ...    0.0194992055

-------
TIMINGS
-------

Total SCF gradient time            ...       41.609 sec

One electron gradient       ....       0.210 sec  (  0.5%)
Two electron gradient       ....      41.298 sec  ( 99.3%)

Maximum memory used throughout the entire SCFGRAD-calculation: 85.9 MB
------------------------------------------------------------------------------
                         ORCA GEOMETRY RELAXATION STEP
------------------------------------------------------------------------------

Reading the OPT-File                    .... done
Getting information on internals        .... done
Copying old internal coords+grads       .... done
Making the new internal coordinates     .... (new redundants).... done
Validating the new internal coordinates .... (new redundants).... done
Calculating the B-matrix                .... done
Calculating the G,G- and P matrices     .... done
Transforming gradient to internals      .... done
Projecting the internal gradient        .... done
Number of atoms                         ....  13
Number of internal coordinates          ....  54
Current Energy                          .... -2765.562289864 Eh
[...]
     18       0.087099  -0.022262  -0.110929   0.002380  -0.014839  -0.055722
     19       0.325927  -0.132958  -0.144045   0.137461   0.169534  -0.091725
     20      -0.435319   0.226358   0.002362  -0.322238  -0.375630   0.005928
     21       0.163183  -0.106665  -0.139109   0.103955   0.155674  -0.116267
     22       0.233228   0.091510  -0.204579  -0.352394  -0.233813   0.016383
     23      -0.302568  -0.068081   0.194888   0.314251   0.209983   0.013909
     24       0.093743  -0.067117  -0.087459   0.074490   0.095722  -0.084626
     25      -0.082838   0.124607   0.209673  -0.148765  -0.202061   0.302852
     26       0.059197  -0.070645  -0.442808  -0.080397  -0.015168  -0.402369
     27       0.000547   0.000166   0.002194  -0.003344   0.005917  -0.000383
     28      -0.001719  -0.000395  -0.000061  -0.000666  -0.003751   0.000221
     29       0.000664  -0.000785  -0.000477   0.000344  -0.001052  -0.000940
     30       0.127374   0.341225  -0.045608   0.113395   0.067437   0.025441
     31      -0.095873  -0.404458  -0.000587  -0.208269  -0.085023  -0.116507
     32      -0.085594  -0.214372  -0.339382  -0.251674   0.090080  -0.097616
     33      -0.019101  -0.018914  -0.000576   0.005298   0.004479   0.007138
     34       0.008228   0.004883   0.001352  -0.011646   0.000449  -0.003638
     35      -0.003730  -0.009302   0.002018  -0.000978  -0.000351  -0.000301
     36      -0.022028   0.018010  -0.013114   0.075727  -0.022917   0.020252
     37       0.009183  -0.000667   0.001144  -0.019719   0.005321  -0.005069
     38      -0.005611   0.000801   0.003886   0.016707  -0.011955   0.003099
                 24         25         26         27         28         29    
      0      -0.113745   0.020338  -0.011981  -0.006045  -0.004998  -0.025397
      1      -0.130150  -0.000621   0.021959  -0.001257  -0.007795  -0.001532
      2      -0.057512   0.114430  -0.133573   0.025253   0.034989  -0.026087
      3       0.060563  -0.052041   0.054071  -0.006756  -0.014791  -0.003507
      4      -0.301298   0.071258  -0.033007  -0.003275  -0.000472  -0.026956
      5      -0.325070  -0.520065   0.466589  -0.099619  -0.103994   0.090035
      6       0.102677   0.010894  -0.026665  -0.022650  -0.024983  -0.013507
      7       0.092307   0.025428  -0.026724   0.007124   0.003390  -0.010651
      8       0.014171  -0.015256   0.027165   0.053487  -0.037174   0.027840
      9      -0.061449  -0.126696   0.216845   0.206198   0.283017   0.170392
     10      -0.160385  -0.194275   0.173815  -0.234793   0.127749  -0.073207
     11      -0.168646  -0.198145   0.187907  -0.154728   0.060116  -0.030388
     12      -0.129766   0.069411   0.061020   0.275757   0.001258   0.192964
     13       0.054692  -0.119444   0.141130   0.195341  -0.103495   0.250837
     14       0.105848  -0.076971  -0.113993  -0.686290  -0.200057  -0.329358
     15       0.053452  -0.023730   0.039415   0.024157   0.005136  -0.038711
     16       0.053346  -0.077345  -0.057737   0.025399  -0.020973  -0.017346
     17       0.043515   0.046710   0.112808  -0.020323  -0.060480   0.017178
     18      -0.099343   0.201801   0.073125  -0.208323   0.303184   0.201439
     19      -0.104173   0.258717   0.086090  -0.237501   0.320177   0.215323
     20      -0.113005  -0.366985  -0.534045  -0.094521   0.091032   0.354044
     21      -0.099893  -0.003058  -0.279478  -0.268205  -0.178827   0.571826
     22      -0.163103   0.377612   0.267948   0.044704  -0.321256  -0.053036
     23       0.200679  -0.267330  -0.059057   0.007655   0.186969  -0.047146
     24      -0.019058  -0.197103  -0.174724   0.133028  -0.215260  -0.093858
     25       0.104637   0.194907   0.242227  -0.140241   0.403368   0.037538
     26      -0.314497  -0.176506  -0.177751   0.201882   0.355565  -0.414186
     27      -0.000787   0.000207   0.000389  -0.000036   0.000018   0.000035
     28       0.000884  -0.000267  -0.000342   0.000034   0.000077   0.000158
     29       0.000606  -0.000391   0.000252  -0.000147  -0.000080   0.000081
     30      -0.036783  -0.033413   0.011076  -0.083257   0.081510  -0.075324
     31       0.255518   0.062849  -0.056007   0.093494  -0.129839   0.076157
     32       0.602878  -0.104665   0.123462  -0.019670   0.314076   0.065586
     33      -0.002862   0.002406  -0.000908  -0.000166   0.003099  -0.004180
     34       0.003473  -0.000377  -0.002906  -0.005330  -0.000181  -0.004995
     35      -0.002164   0.000451   0.000378   0.009075   0.003421   0.004255
     36      -0.011485  -0.002933   0.012508   0.011148  -0.014638   0.024434
     37       0.004176   0.001551  -0.004255  -0.008383   0.002937  -0.008026
     38      -0.003926  -0.003763   0.004631   0.016791  -0.004943   0.011843
                 30         31         32         33         34         35    
      0      -0.003032  -0.021979   0.000408   0.001139  -0.000762  -0.004933
      1       0.028381   0.007119  -0.000673  -0.002715   0.004081  -0.004111
      2       0.069566  -0.046304  -0.000846  -0.003828  -0.000970   0.000284
      3       0.028446   0.042085   0.003620   0.003300  -0.017491   0.061546
      4       0.008594  -0.055445   0.002951   0.007579  -0.021149   0.069151
      5      -0.176146   0.068092   0.002485   0.003283  -0.000791  -0.002203
      6      -0.042751   0.018113   0.002598   0.055338  -0.002667   0.029540
      7      -0.014629   0.061951   0.000515   0.020784   0.000418   0.067848
      8      -0.091210   0.065449   0.001215   0.035062  -0.003483  -0.056191
      9       0.399891  -0.041225   0.000574   0.009085   0.001507   0.019122
     10       0.312932  -0.033140   0.014469   0.307783  -0.031413  -0.539777
     11       0.166505  -0.001889  -0.014909  -0.380796   0.040726   0.679901
     12       0.009888  -0.400023  -0.003678  -0.004683   0.004154   0.005999
     13      -0.147694  -0.684552   0.002333   0.010751  -0.002885   0.006063
     14      -0.020147  -0.443050  -0.001045   0.004459  -0.001140  -0.006325
     15      -0.009224  -0.001146   0.024034  -0.006364  -0.080860   0.000596
     16       0.008365  -0.001832  -0.043070   0.002226   0.012428  -0.002821
     17       0.013243   0.016339   0.023318   0.000404   0.034506  -0.002583
     18      -0.190640  -0.008056  -0.618099   0.049934   0.411478  -0.012129
     19      -0.208029  -0.015425   0.517440  -0.042632  -0.357226   0.009892
     20      -0.007951   0.051765   0.076870  -0.006241  -0.047410   0.002591
     21       0.126838   0.095159  -0.049191  -0.001369  -0.058470   0.004166
     22       0.245876   0.012926  -0.220065   0.000487  -0.206625   0.020581
     23      -0.177135  -0.007834  -0.317206   0.005729  -0.301195   0.030338
     24       0.141878   0.005927   0.372426   0.026542   0.628665   0.000354
     25      -0.271854  -0.030268   0.220386   0.015702   0.391758  -0.000610
     26      -0.188521  -0.107342  -0.026824  -0.000943  -0.047962   0.000733
     27      -0.000298  -0.000356  -0.000019  -0.000069   0.000081   0.000010
     28       0.000108   0.000284   0.000031   0.000036  -0.000040  -0.000024
     29      -0.000158   0.000280  -0.000021   0.000002  -0.000038   0.000026
     30       0.125139   0.222513  -0.029082  -0.674779   0.031011  -0.380193
     31      -0.232317  -0.205349  -0.023018  -0.542663   0.026277  -0.286931
     32       0.506908  -0.141711   0.000401  -0.001902   0.000727  -0.011886
     33       0.002962   0.017964   0.000191  -0.000001  -0.000185  -0.000051
     34       0.001226   0.010294  -0.000094  -0.000188   0.000180  -0.000164
     35       0.000511   0.010482   0.000022  -0.000075   0.000087   0.000120
     36      -0.009379  -0.113600  -0.000285   0.000312   0.000035   0.000805
     37       0.000906   0.024166  -0.000393   0.001265  -0.000133   0.000243
     38       0.000976  -0.029402  -0.000670   0.000486   0.000542  -0.000163
                 36         37         38    
      0       0.005555  -0.056815   0.000127
      1       0.004652  -0.064638  -0.000092
      2       0.000137  -0.000676  -0.000064
      3      -0.065906   0.655015  -0.000210
      4      -0.072288   0.738415  -0.000350
      5      -0.002526   0.001454  -0.000002
      6      -0.001254  -0.002742  -0.000053
      7      -0.001734  -0.005541   0.000004
      8       0.000974   0.006593   0.000000
      9      -0.000270  -0.001815  -0.000053
     10       0.010466   0.044051   0.000308
     11      -0.012825  -0.059446  -0.000332
     12      -0.000972  -0.005931   0.006233
     13       0.000445   0.002225   0.002192
     14       0.001592  -0.002256   0.002863
     15      -0.036083  -0.005571   0.000001
     16      -0.065605  -0.004500   0.000030
     17      -0.054947  -0.005482  -0.000023
     18      -0.104513   0.004576   0.000626
     19       0.071391  -0.006350   0.000113
     20       0.003240   0.000974  -0.000463
     21       0.097392   0.008990  -0.000009
     22       0.468498   0.035060  -0.000041
     23       0.693399   0.059105   0.000060
     24       0.434588   0.057107  -0.000425
     25       0.253416   0.036261  -0.000074
     26      -0.045952  -0.008295   0.000101
     27       0.000001   0.000134  -0.000006
     28       0.000026   0.000074   0.000005
     29       0.000045  -0.000008   0.000001
     30       0.016879   0.043566  -0.001761
     31       0.013075   0.034480  -0.000298
     32       0.001428   0.002645   0.000098
     33       0.000111   0.000231   0.002546
     34       0.000010   0.000023   0.059307
     35      -0.000025   0.000071   0.020316
     36      -0.000338   0.000227  -0.045198
     37      -0.000229  -0.000557  -0.942909
     38      -0.000001   0.000132  -0.323863


-----------
IR SPECTRUM
-----------

 Mode   freq       eps      Int      T**2         TX        TY        TZ
       cm**-1   L/(mol*cm) km/mol    a.u.
----------------------------------------------------------------------------
  7:     70.70   0.003377   17.06  0.014904  (-0.021573  0.111426  0.044977)
  8:     91.10   0.020339  102.79  0.069673  (-0.134336  0.047654  0.222161)
  9:    121.86   0.011897   60.12  0.030466  ( 0.041605  0.089646 -0.143870)
 10:    141.63   0.000615    3.11  0.001355  (-0.030682 -0.003639  0.020013)
 11:    226.19   0.007215   36.46  0.009954  (-0.071771  0.068796 -0.008397)
 12:    275.54   0.001270    6.42  0.001439  (-0.019007  0.032659  0.003267)
 13:    359.70   0.017731   89.60  0.015382  (-0.102174  0.069938 -0.007177)
 14:    438.20   0.001515    7.66  0.001079  ( 0.030049 -0.011222 -0.007072)
 15:    494.83   0.013509   68.27  0.008519  ( 0.087261 -0.026180  0.014816)
 16:    593.60   0.001712    8.65  0.000900  ( 0.026591 -0.000707  0.013878)
 17:    765.36   0.165772  837.74  0.067591  (-0.184372  0.169240  0.070398)
 18:    950.97   0.000465    2.35  0.000152  (-0.012008 -0.002609  0.001204)
 19:   1005.89   0.020359  102.88  0.006316  (-0.066979  0.041327 -0.011042)
 20:   1031.46   0.000059    0.30  0.000018  (-0.002992 -0.001896  0.002306)
 21:   1076.91   0.023851  120.53  0.006912  ( 0.063127 -0.050488 -0.019429)
 22:   1192.95   0.030645  154.87  0.008016  ( 0.052685 -0.067747 -0.025515)
 23:   1273.54   0.010722   54.18  0.002627  ( 0.040273 -0.031197  0.005668)
 24:   1338.23   0.007527   38.04  0.001755  (-0.034353  0.023946 -0.001296)
 25:   1500.48   0.007711   38.97  0.001604  ( 0.034542 -0.018747 -0.007685)
 26:   1539.40   0.004675   23.62  0.000948  ( 0.006908  0.000507 -0.029994)
 27:   1583.28   0.011805   59.66  0.002327  ( 0.033673 -0.022693 -0.026036)
 28:   1598.20   0.002362   11.94  0.000461  ( 0.020590 -0.005778  0.001989)
 29:   1608.51   0.003107   15.70  0.000603  ( 0.021835  0.008206 -0.007663)
 30:   1625.19   0.003413   17.25  0.000655  ( 0.020938 -0.013745  0.005287)
 31:   1652.13   0.002878   14.54  0.000544  (-0.000596 -0.019303 -0.013061)
 32:   3158.57   0.002517   12.72  0.000249  (-0.003751 -0.003077  0.015003)
 33:   3187.67   0.006789   34.31  0.000665  ( 0.009774  0.016025  0.017673)
 34:   3234.54   0.002052   10.37  0.000198  (-0.008238 -0.007993  0.008137)
 35:   3247.64   0.008964   45.30  0.000861  ( 0.010561  0.018049 -0.020593)
 36:   3260.11   0.005777   29.20  0.000553  (-0.011454 -0.013428 -0.015540)
 37:   3363.74   0.001520    7.68  0.000141  (-0.004859 -0.010706 -0.001661)
 38:   4086.06   0.004130   20.87  0.000315  (-0.002275  0.016473  0.006238)

* The epsilon (eps) is given for a Dirac delta lineshape.
** The dipole moment derivative (T) already includes vibrational overlap.

The first frequency considered to be a vibration is 7
The total number of vibrations considered is 32


--------------------------
THERMOCHEMISTRY AT 298.15K
--------------------------

Temperature         ... 298.15 K
Pressure            ... 1.00 atm
Total Mass          ... 140.00 AMU

Throughout the following assumptions are being made:
  (1) The electronic state is orbitally nondegenerate
  (2) There are no thermally accessible electronically excited states
  (3) Hindered rotations indicated by low frequency modes are not
      treated as such but are treated as vibrations and this may
      cause some error
  (4) All equations used are the standard statistical mechanics
      equations for an ideal gas
  (5) All vibrations are strictly harmonic

freq.      70.70  E(vib)   ...       0.50 
freq.      91.10  E(vib)   ...       0.47 
freq.     121.86  E(vib)   ...       0.44 
freq.     141.63  E(vib)   ...       0.41 
freq.     226.19  E(vib)   ...       0.33 
freq.     275.54  E(vib)   ...       0.28 
freq.     359.70  E(vib)   ...       0.22 
freq.     438.20  E(vib)   ...       0.17 
freq.     494.83  E(vib)   ...       0.14 
freq.     593.60  E(vib)   ...       0.10 
freq.     765.36  E(vib)   ...       0.06 
freq.     950.97  E(vib)   ...       0.03 
freq.    1005.89  E(vib)   ...       0.02 
freq.    1031.46  E(vib)   ...       0.02 
freq.    1076.91  E(vib)   ...       0.02 
freq.    1192.95  E(vib)   ...       0.01 
freq.    1273.54  E(vib)   ...       0.01 
freq.    1338.23  E(vib)   ...       0.01 
freq.    1500.48  E(vib)   ...       0.00 
freq.    1539.40  E(vib)   ...       0.00 
freq.    1583.28  E(vib)   ...       0.00 
freq.    1598.20  E(vib)   ...       0.00 
freq.    1608.51  E(vib)   ...       0.00 
freq.    1625.19  E(vib)   ...       0.00 
freq.    1652.13  E(vib)   ...       0.00 
freq.    3158.57  E(vib)   ...       0.00 
freq.    3187.67  E(vib)   ...       0.00 
freq.    3234.54  E(vib)   ...       0.00 
freq.    3247.64  E(vib)   ...       0.00 
freq.    3260.11  E(vib)   ...       0.00 
freq.    3363.74  E(vib)   ...       0.00 
freq.    4086.06  E(vib)   ...       0.00 

------------
INNER ENERGY
------------

The inner energy is: U= E(el) + E(ZPE) + E(vib) + E(rot) + E(trans)
    E(el)   - is the total energy from the electronic structure calculation
              = E(kin-el) + E(nuc-el) + E(el-el) + E(nuc-nuc)
    E(ZPE)  - the the zero temperature vibrational energy from the frequency calculation
    E(vib)  - the the finite temperature correction to E(ZPE) due to population
              of excited vibrational states
    E(rot)  - is the rotational thermal energy
    E(trans)- is the translational thermal energy

Summary of contributions to the inner energy U:
Electronic energy                ...  -2765.56972301 Eh
Zero point energy                ...      0.10501022 Eh      65.89 kcal/mol
Thermal vibrational correction   ...      0.00517769 Eh       3.25 kcal/mol
Thermal rotational correction    ...      0.00141627 Eh       0.89 kcal/mol
Thermal translational correction ...      0.00141627 Eh       0.89 kcal/mol
-----------------------------------------------------------------------
Total thermal energy                  -2765.45670256 Eh


Summary of corrections to the electronic energy:
(perhaps to be used in another calculation)
Total thermal correction                  0.00801023 Eh       5.03 kcal/mol
Non-thermal (ZPE) correction              0.10501022 Eh      65.89 kcal/mol
-----------------------------------------------------------------------
Total correction                          0.11302046 Eh      70.92 kcal/mol


--------
ENTHALPY
--------

The enthalpy is H = U + kB*T
                kB is Boltzmann's constant
Total free energy                 ...  -2765.45670256 Eh 
Thermal Enthalpy correction       ...      0.00094421 Eh       0.59 kcal/mol
-----------------------------------------------------------------------
Total Enthalpy                    ...  -2765.45575835 Eh


Note: Only C1 symmetry has been detected, increase convergence thresholds 
      if your molecule has a higher symmetry. Symmetry factor of 1.0 is   
      used for the rotational entropy correction. 
 

Note: Rotational entropy computed according to Herzberg 
Infrared and Raman Spectra, Chapter V,1, Van Nostrand Reinhold, 1945 
Point Group:  C1, Symmetry Number:   1  
Rotational constants in cm-1:     0.252849     0.031509     0.029106 

Vibrational entropy computed according to the QRRHO of S. Grimme
Chem.Eur.J. 2012 18 9955


-------
ENTROPY
-------

The entropy contributions are T*S = T*(S(el)+S(vib)+S(rot)+S(trans))
     S(el)   - electronic entropy
     S(vib)  - vibrational entropy
     S(rot)  - rotational entropy
     S(trans)- translational entropy
The entropies will be listed as multiplied by the temperature to get
units of energy

Electronic entropy                ...      0.00000000 Eh      0.00 kcal/mol
Vibrational entropy               ...      0.00931592 Eh      5.85 kcal/mol
Rotational entropy                ...      0.01346185 Eh      8.45 kcal/mol
Translational entropy             ...      0.01934774 Eh     12.14 kcal/mol
-----------------------------------------------------------------------
Final entropy term                ...      0.04212551 Eh     26.43 kcal/mol

In case the symmetry of your molecule has not been determined correctly
or in case you have a reason to use a different symmetry number we print 
out the resulting rotational entropy values for sn=1,12 :
 --------------------------------------------------------
|  sn= 1 | S(rot)=       0.01346185 Eh      8.45 kcal/mol|
|  sn= 2 | S(rot)=       0.01280740 Eh      8.04 kcal/mol|
|  sn= 3 | S(rot)=       0.01242457 Eh      7.80 kcal/mol|
|  sn= 4 | S(rot)=       0.01215294 Eh      7.63 kcal/mol|
|  sn= 5 | S(rot)=       0.01194225 Eh      7.49 kcal/mol|
|  sn= 6 | S(rot)=       0.01177011 Eh      7.39 kcal/mol|
|  sn= 7 | S(rot)=       0.01162456 Eh      7.29 kcal/mol|
|  sn= 8 | S(rot)=       0.01149849 Eh      7.22 kcal/mol|
|  sn= 9 | S(rot)=       0.01138728 Eh      7.15 kcal/mol|
|  sn=10 | S(rot)=       0.01128780 Eh      7.08 kcal/mol|
|  sn=11 | S(rot)=       0.01119781 Eh      7.03 kcal/mol|
|  sn=12 | S(rot)=       0.01111565 Eh      6.98 kcal/mol|
 --------------------------------------------------------


-------------------
GIBBS FREE ENERGY
-------------------

The Gibbs free energy is G = H - T*S

Total enthalpy                    ...  -2765.45575835 Eh 
Total entropy correction          ...     -0.04212551 Eh    -26.43 kcal/mol
-----------------------------------------------------------------------
Final Gibbs free energy         ...  -2765.49788386 Eh

For completeness - the Gibbs free energy minus the electronic energy
G-E(el)                           ...      0.07183915 Eh     45.08 kcal/mol



Timings for individual modules:

Sum of individual times         ...     8644.457 sec (= 144.074 min)
GTO integral calculation        ...        9.834 sec (=   0.164 min)   0.1 %
SCF iterations                  ...     1556.207 sec (=  25.937 min)  18.0 %
SCF Gradient evaluation         ...     1070.077 sec (=  17.835 min)  12.4 %
Geometry relaxation             ...        1.231 sec (=   0.021 min)   0.0 %
Numerical frequency calculation ...     6007.108 sec (= 100.118 min)  69.5 %
                             ****ORCA TERMINATED NORMALLY****
TOTAL RUN TIME: 0 days 2 hours 23 minutes 10 seconds 263 msec
