[Molden Format]
[Title]
 Molden file created by orca_2mkl for BaseName=4117196/exe1

[Atoms] AU
C    1   6         -5.9814571606         0.8913558568        -0.3145413715 
C    2   6         -8.5725982655         1.9605904388         0.4153362418 
H    3   1         -5.6610062954         1.3483580955        -2.3245519023 
C    4   6         -3.7755415337         2.1115815804         1.1989353841 
C    5   6         -6.0390228256        -1.9946795039        -0.0642715814 
C    6   6         -3.9134918870         5.0036740159         1.2062816492 
H    7   1         -3.9722162424         1.4643759096         3.1738554626 
C    8   6         -1.1754573157         1.2111142165         0.2404062260 
H    9   1         -0.9120059903         1.9028227864        -1.7069308192 
C   10   6          1.0860849419         1.9851234968         1.8515407923 
H   11   1         -1.1780087933        -0.8570506232         0.1039646053 
H   12   1         -5.6369560400         5.7048002639         2.1114338684 
H   13   1         -2.3205699324         5.8357459754         2.2339678170 
H   14   1         -3.8652399183         5.7572290728        -0.7305211657 
H   15   1         -8.7521395016         3.9781931066        -0.0081351639 
H   16   1        -10.0837750379         0.9847872489        -0.6157702042 
H   17   1         -8.9439407070         1.7040097732         2.4443113947 
H   18   1         -7.6181409190        -2.7947829090        -1.1438668780 
H   19   1         -4.3130684069        -2.9010781492        -0.7583957154 
H   20   1         -6.2950732613        -2.5613067680         1.9186986204 
H   21   1          1.3613683645         4.0391059574         1.9076295992 
H   22   1          0.8747564493         1.3309415643         3.8114392458 
H   23   1          2.8383937231         1.1598227714         1.1110944735 
[GTO]
  1 0
s   5 1.0 
     1238.4016938000         0.8208956682
      186.2900499200         1.4766449896
       42.2511763460         2.1526124058
       11.6765579320         2.1081722461
        3.5930506482         0.8290999933
s   1 1.0 
        0.4024514736         0.3601183351
s   1 1.0 
        0.1309018267         0.1551027052
p   3 1.0 
        9.4680970621         1.3467645142
        2.0103545142         1.0678070931
        0.5477100471         0.5108735714
p   1 1.0 
        0.1526861379         0.1360471976
d   1 1.0 
        0.8000000000         1.9292013661

  2 0
s   5 1.0 
     1238.4016938000         0.8208956682
      186.2900499200         1.4766449896
       42.2511763460         2.1526124058
       11.6765579320         2.1081722461
        3.5930506482         0.8290999933
s   1 1.0 
        0.4024514736         0.3601183351
s   1 1.0 
        0.1309018267         0.1551027052
p   3 1.0 
        9.4680970621         1.3467645142
        2.0103545142         1.0678070931
        0.5477100471         0.5108735714
p   1 1.0 
        0.1526861379         0.1360471976
d   1 1.0 
        0.8000000000         1.9292013661

  3 0
s   3 1.0 
       13.0107010000         0.1634903809
        1.9622572000         0.2773515510
        0.4445379600         0.3157501452
s   1 1.0 
        0.1219496200         0.1470772262
p   1 1.0 
        0.8000000000         1.0784563492

  4 0
s   5 1.0 
     1238.4016938000         0.8208956682
      186.2900499200         1.4766449896
       42.2511763460         2.1526124058
       11.6765579320         2.1081722461
        3.5930506482         0.8290999933
s   1 1.0 
        0.4024514736         0.3601183351
s   1 1.0 
        0.1309018267         0.1551027052
p   3 1.0 
        9.4680970621         1.3467645142
        2.0103545142         1.0678070931
        0.5477100471         0.5108735714
p   1 1.0 
        0.1526861379         0.1360471976
d   1 1.0 
        0.8000000000         1.9292013661

  5 0
s   5 1.0 
     1238.4016938000         0.8208956682
      186.2900499200         1.4766449896
       42.2511763460         2.1526124058
       11.6765579320         2.1081722461
        3.5930506482         0.8290999933
s   1 1.0 
        0.4024514736         0.3601183351
s   1 1.0 
        0.1309018267         0.1551027052
p   3 1.0 
        9.4680970621         1.3467645142
        2.0103545142         1.0678070931
        0.5477100471         0.5108735714
p   1 1.0 
        0.1526861379         0.1360471976
d   1 1.0 
        0.8000000000         1.9292013661

  6 0
s   5 1.0 
     1238.4016938000         0.8208956682
      186.2900499200         1.4766449896
       42.2511763460         2.1526124058
       11.6765579320         2.1081722461
        3.5930506482         0.8290999933
s   1 1.0 
        0.4024514736         0.3601183351
s   1 1.0 
        0.1309018267         0.1551027052
p   3 1.0 
        9.4680970621         1.3467645142
        2.0103545142         1.0678070931
        0.5477100471         0.5108735714
p   1 1.0 
        0.1526861379         0.1360471976
d   1 1.0 
        0.8000000000         1.9292013661

  7 0
s   3 1.0 
       13.0107010000         0.1634903809
        1.9622572000         0.2773515510
        0.4445379600         0.3157501452
s   1 1.0 
        0.1219496200         0.1470772262
p   1 1.0 
        0.8000000000         1.0784563492

  8 0
s   5 1.0 
     1238.4016938000         0.8208956682
      186.2900499200         1.4766449896
       42.2511763460         2.1526124058
       11.6765579320         2.1081722461
        3.5930506482         0.8290999933
s   1 1.0 
        0.4024514736         0.3601183351
s   1 1.0 
        0.1309018267         0.1551027052
p   3 1.0 
        9.4680970621         1.3467645142
        2.0103545142         1.0678070931
        0.5477100471         0.5108735714
p   1 1.0 
        0.1526861379         0.1360471976
d   1 1.0 
        0.8000000000         1.9292013661

  9 0
s   3 1.0 
       13.0107010000         0.1634903809
        1.9622572000         0.2773515510
        0.4445379600         0.3157501452
s   1 1.0 
        0.1219496200         0.1470772262
p   1 1.0 
        0.8000000000         1.0784563492

 10 0
s   5 1.0 
     1238.4016938000         0.8208956682
      186.2900499200         1.4766449896
       42.2511763460         2.1526124058
       11.6765579320         2.1081722461
        3.5930506482         0.8290999933
s   1 1.0 
        0.4024514736         0.3601183351
s   1 1.0 
        0.1309018267         0.1551027052
p   3 1.0 
        9.4680970621         1.3467645142
        2.0103545142         1.0678070931
        0.5477100471         0.5108735714
p   1 1.0 
        0.1526861379         0.1360471976
d   1 1.0 
        0.8000000000         1.9292013661

 11 0
s   3 1.0 
       13.0107010000         0.1634903809
        1.9622572000         0.2773515510
        0.4445379600         0.3157501452
s   1 1.0 
        0.1219496200         0.1470772262
p   1 1.0 
        0.8000000000         1.0784563492

 12 0
s   3 1.0 
       13.0107010000         0.1634903809
        1.9622572000         0.2773515510
        0.4445379600         0.3157501452
s   1 1.0 
        0.1219496200         0.1470772262
p   1 1.0 
        0.8000000000         1.0784563492

 13 0
s   3 1.0 
       13.0107010000         0.1634903809
        1.9622572000         0.2773515510
        0.4445379600         0.3157501452
s   1 1.0 
        0.1219496200         0.1470772262
p   1 1.0 
        0.8000000000         1.0784563492

 14 0
s   3 1.0 
       13.0107010000         0.1634903809
        1.9622572000         0.2773515510
        0.4445379600         0.3157501452
s   1 1.0 
        0.1219496200         0.1470772262
p   1 1.0 
        0.8000000000         1.0784563492

 15 0
s   3 1.0 
       13.0107010000         0.1634903809
        1.9622572000         0.2773515510
        0.4445379600         0.3157501452
s   1 1.0 
        0.1219496200         0.1470772262
p   1 1.0 
        0.8000000000         1.0784563492

 16 0
s   3 1.0 
       13.0107010000         0.1634903809
        1.9622572000         0.2773515510
        0.4445379600         0.3157501452
s   1 1.0 
        0.1219496200         0.1470772262
p   1 1.0 
        0.8000000000         1.0784563492

 17 0
s   3 1.0 
       13.0107010000         0.1634903809
        1.9622572000         0.2773515510
        0.4445379600         0.3157501452
s   1 1.0 
        0.1219496200         0.1470772262
p   1 1.0 
        0.8000000000         1.0784563492

 18 0
s   3 1.0 
       13.0107010000         0.1634903809
        1.9622572000         0.2773515510
        0.4445379600         0.3157501452
s   1 1.0 
        0.1219496200         0.1470772262
p   1 1.0 
        0.8000000000         1.0784563492

 19 0
s   3 1.0 
       13.0107010000         0.1634903809
        1.9622572000         0.2773515510
        0.4445379600         0.3157501452
s   1 1.0 
        0.1219496200         0.1470772262
p   1 1.0 
        0.8000000000         1.0784563492

 20 0
s   3 1.0 
       13.0107010000         0.1634903809
        1.9622572000         0.2773515510
        0.4445379600         0.3157501452
s   1 1.0 
        0.1219496200         0.1470772262
p   1 1.0 
        0.8000000000         1.0784563492

 21 0
s   3 1.0 
       13.0107010000         0.1634903809
        1.9622572000         0.2773515510
        0.4445379600         0.3157501452
s   1 1.0 
        0.1219496200         0.1470772262
p   1 1.0 
        0.8000000000         1.0784563492

 22 0
s   3 1.0 
       13.0107010000         0.1634903809
        1.9622572000         0.2773515510
        0.4445379600         0.3157501452
s   1 1.0 
        0.1219496200         0.1470772262
p   1 1.0 
        0.8000000000         1.0784563492

 23 0
s   3 1.0 
       13.0107010000         0.1634903809
        1.9622572000         0.2773515510
        0.4445379600         0.3157501452
s   1 1.0 
        0.1219496200         0.1470772262
p   1 1.0 
        0.8000000000         1.0784563492

[5D]
[7F]
[9G]
[MO]
 Sym=     1a
 Ene= -7.85883403954209E-01
 Spin= Alpha
 Occup= 2.000000
  1       0.020539933670
  2      -0.171481439715
  3      -0.248014988398
  4      -0.013852250357
  5      -0.005364060178
  6      -0.032744510596
  7       0.024054980856
  8       0.046011043584
  9      -0.056737807146
 10       0.010304255983
 11      -0.005577361458
 12      -0.005311020282
 13      -0.001460433053
 14      -0.001036728035
 15       0.011130809761
 16      -0.099149323375
 17      -0.012170808481
 18      -0.048835782849
 19       0.017829582969
 20       0.008279653495
 21       0.006826789428
 22      -0.013943254343
 23       0.014742141559
 24       0.004459192832
 25       0.004713360139
 26      -0.001833106944
 27      -0.006896001510
 28       0.005336680487
 29      -0.086680458982
 30       0.009856797751
 31       0.003471278650
 32       0.003882711677
 33      -0.019840058667
 34       0.021951246691
 35      -0.186395376734
 36      -0.239604078372
 37       0.005992213883
 38       0.002600561326
 39       0.032285828630
 40      -0.030595111440
 41      -0.051513460655
 42       0.060915639643
 43       0.010514519796
 44      -0.002894533675
 45      -0.007372007494
 46      -0.001803342551
 47       0.000158277049
 48       0.011190401072
 49      -0.099892823104
 50       0.016702813893
 51      -0.003810658353
 52      -0.051672923337
 53       0.000104669430
 54      -0.005099702162
 55       0.017034483093
 56       0.010654921614
 57       0.005373555931
 58      -0.000032913960
 59       0.002009480201
 60       0.008998695004
 61      -0.001145243913
 62       0.012039081355
 63      -0.108970656433
 64       0.009985205533
 65      -0.002088527453
 66       0.055899627447
 67       0.004843261361
 68       0.013720805791
 69      -0.017623598519
 70      -0.021182195329
 71       0.006023576766
 72       0.000016203413
 73       0.000507896350
 74       0.009712084335
 75       0.000314840331
 76      -0.095222283389
 77       0.009284336255
 78      -0.001758720027
 79      -0.006403068770
 80       0.020642384168
 81       0.014998066321
 82      -0.131103064453
 83      -0.079632472914
 84       0.034918483352
 85      -0.021017376299
 86      -0.024383017918
 87      -0.029412354465
 88       0.007718192014
 89      -0.038900360195
 90       0.004222164586
 91       0.000996224936
 92      -0.004141027480
 93      -0.010905989219
 94       0.002109229825
 95      -0.066556371265
 96      -0.006729433535
 97       0.002640190281
 98       0.006291320235
 99      -0.013917358290
100       0.007781470281
101      -0.071793447830
102       0.000435205674
103       0.033539711000
104       0.006941681003
105       0.017083208243
106      -0.010356465831
107      -0.006899118867
108       0.005295068141
109       0.000577690809
110      -0.006064352602
111      -0.001747172758
112      -0.004140020102
113      -0.002429598684
114      -0.063346516501
115       0.007119028898
116       0.002042146150
117      -0.015883883809
118       0.000916872248
119      -0.049216510324
120       0.003139788253
121      -0.009741453748
122       0.005557470355
123       0.006302654115
124      -0.051137831324
125      -0.004081003382
126       0.008626255151
127       0.005809653536
128       0.007472857836
129      -0.056214947808
130      -0.011983567736
131      -0.000240388764
132       0.004869134095
133      -0.011821037643
134      -0.046320175997
135       0.000181686159
136      -0.002639865018
137       0.011552178671
138      -0.003118927864
139      -0.044649839571
140      -0.000367313854
141      -0.008623257719
142      -0.004421429268
143      -0.006529064349
144      -0.051141726294
145      -0.009061868603
146      -0.002007622891
147      -0.001417512530
148       0.011484277060
149      -0.046033012940
150      -0.003217271879
151      -0.008370851782
152      -0.005095006715
153      -0.006713880640
154      -0.048039641285
155      -0.007566991176
156       0.009296717052
157      -0.006682631717
158      -0.004682629122
159      -0.051131590334
160      -0.009223550679
161      -0.001504752097
162      -0.003221189423
163       0.011283528440
164      -0.034011440017
165      -0.002377719697
166       0.002362234739
167       0.007967388985
168       0.000010952559
169      -0.035842394179
170      -0.009273280280
171      -0.000269749659
172      -0.002678185604
173       0.008038009702
174      -0.029422700853
175       0.001409361687
176       0.006911092057
177      -0.002535709182
178      -0.002944011807
 Sym=     1a
 Ene= -7.28740214316161E-01
 Spin= Alpha
 Occup= 2.000000
  1       0.016410020851
  2      -0.137074177490
  3      -0.289212599568
  4       0.060766510524
  5       0.032684582858
  6      -0.008192858171
  7       0.025394662893
  8       0.000427946978
  9      -0.039126771705
 10       0.009760367405
 11       0.003234018926
 12      -0.001246360722
 13       0.002320764418
 14       0.004277118509
 15       0.015096385711
 16      -0.133873348607
 17      -0.048223108467
 18      -0.039254408828
 19       0.028214198841
 20       0.013668762883
 21       0.009977716811
 22      -0.006556436909
 23      -0.000806197993
 24       0.003731734466
 25       0.004597453298
 26      -0.002175798605
 27      -0.004911401528
 28       0.006357730760
 29      -0.067317947011
 30       0.019526148807
 31       0.002667270766
 32       0.004211819110
 33      -0.015658300142
 34      -0.006983103156
 35       0.055872936939
 36       0.144917336822
 37       0.091100197273
 38       0.026544933595
 39       0.006541288693
 40      -0.021691963710
 41       0.006840564772
 42      -0.014760297535
 43      -0.005616689608
 44      -0.007738857361
 45       0.000034722199
 46       0.000275591724
 47      -0.006180281022
 48       0.013961073980
 49      -0.124135887814
 50      -0.063185462141
 51       0.013391079138
 52      -0.047946809252
 53       0.003608239393
 54      -0.003115624559
 55       0.009251227392
 56       0.009362273967
 57       0.004690644545
 58       0.000042231166
 59       0.002337352732
 60       0.008511143062
 61       0.000883280790
 62      -0.006732327381
 63       0.062953691682
 64       0.010885609319
 65       0.023341677723
 66      -0.021028272590
 67       0.001727458021
 68      -0.004199107519
 69       0.011358507191
 70       0.005131932936
 71      -0.002246304271
 72      -0.000168176124
 73      -0.000467783095
 74      -0.003311665524
 75      -0.003075863883
 76       0.026916593275
 77      -0.010315866374
 78       0.002168340146
 79       0.002402336313
 80      -0.006479897994
 81      -0.019227527021
 82       0.166879709311
 83       0.198534456584
 84       0.028437478699
 85       0.028858535878
 86       0.040477632437
 87       0.020013249260
 88       0.022894863278
 89       0.030817715608
 90      -0.002093219781
 91       0.005310049250
 92       0.005249556162
 93       0.009607378233
 94       0.000434131653
 95       0.084179349439
 96      -0.014335420457
 97      -0.001923301555
 98      -0.007802319307
 99       0.017564598967
100      -0.017881201311
101       0.159773647718
102       0.088121000244
103      -0.048044420604
104      -0.013524247166
105      -0.031261445484
106      -0.001732056648
107      -0.000949775906
108      -0.001512760781
109      -0.000326832113
110       0.009599124425
111       0.003273574572
112       0.005732598476
113       0.004554465119
114       0.081049206610
115      -0.012107780248
116       0.000748099466
117       0.020021755094
118       0.000043990267
119       0.020008082172
120      -0.007676811590
121       0.005625198578
122      -0.001493828412
123      -0.002147303889
124       0.044611810314
125       0.007205634765
126      -0.005194202742
127      -0.004680837111
128      -0.004537891119
129       0.031907195366
130       0.001625646901
131       0.001166203828
132      -0.002644963215
133       0.006482002476
134      -0.065065427989
135       0.001302769451
136      -0.001244982306
137       0.015689050146
138      -0.002984541828
139      -0.076117301159
140      -0.006336413230
141      -0.012837524627
142      -0.007222149381
143      -0.008424857578
144      -0.070914749210
145       0.000995663369
146      -0.002139808005
147      -0.001644252480
148       0.015429308396
149      -0.070198057971
150      -0.001816902273
151      -0.011137162762
152      -0.006811360989
153      -0.008578752537
154      -0.055874913204
155       0.011464748393
156       0.012364421776
157      -0.006011339163
158      -0.004703340291
159      -0.066555524696
160      -0.000362662861
161      -0.001135493224
162      -0.003654702916
163       0.014021085408
164       0.084509333003
165       0.002085214596
166      -0.002805411024
167      -0.018699604350
168      -0.000348044909
169       0.083535744876
170      -0.000407072968
171       0.001986556823
172       0.006077056169
173      -0.017733089423
174       0.081485371200
175       0.003803765695
176      -0.016586189712
177       0.007590805342
178       0.006762078398
 Sym=     1a
 Ene= -6.82146786868114E-01
 Spin= Alpha
 Occup= 2.000000
  1       0.003766650731
  2      -0.027084057790
  3      -0.107849327236
  4       0.032043064465
  5       0.080456994090
  6       0.017599131857
  7      -0.011645996463
  8       0.017058609308
  9      -0.001024390076
 10       0.004483592338
 11       0.003073499552
 12       0.003403502037
 13       0.004693557095
 14       0.002777619939
 15       0.001849888540
 16      -0.015993421951
 17      -0.009288586117
 18       0.003406567706
 19       0.026010741680
 20       0.008169365893
 21       0.001831185785
 22      -0.000387432104
 23      -0.001286426637
 24       0.000275351856
 25       0.001294998584
 26      -0.000872530645
 27       0.000485782926
 28       0.002731351746
 29      -0.013162695999
 30       0.007724149790
 31       0.001069285436
 32       0.001800338605
 33      -0.003593230245
 34      -0.012254259226
 35       0.101539279848
 36       0.232279132821
 37      -0.032785686946
 38       0.104178176252
 39       0.010915955459
 40      -0.007136563657
 41       0.038966607195
 42      -0.012075018645
 43      -0.006641557329
 44       0.002041951071
 45       0.000107548164
 46      -0.012036180322
 47       0.000102826307
 48       0.013594896463
 49      -0.122128113712
 50      -0.089770685784
 51       0.002668821595
 52      -0.015957902225
 53       0.005604194950
 54       0.007830350511
 55      -0.002250299016
 56      -0.004378625878
 57       0.002400207643
 58      -0.000129402897
 59       0.001379289122
 60       0.003957323885
 61       0.000516556870
 62      -0.023882563353
 63       0.210713074430
 64       0.160021520873
 65      -0.007887412923
 66      -0.038099674799
 67       0.001858908868
 68       0.006456877349
 69      -0.001816096182
 70      -0.006233006039
 71      -0.004949035935
 72       0.000133720843
 73      -0.000913432369
 74      -0.009382752073
 75      -0.000075168575
 76       0.049821338494
 77      -0.015680603992
 78       0.000671623580
 79       0.004473098982
 80      -0.011444548575
 81       0.010855779615
 82      -0.093304632977
 83      -0.159621298923
 84      -0.077859850534
 85       0.020566693986
 86      -0.018703454852
 87      -0.011668653710
 88      -0.021578987241
 89      -0.016677875164
 90      -0.000010052609
 91      -0.009988517371
 92      -0.001657532444
 93      -0.005060570094
 94      -0.006410166535
 95      -0.046981808245
 96       0.006761581767
 97       0.000840988248
 98       0.005799263697
 99      -0.010041990242
100       0.017668688130
101      -0.157699016996
102      -0.122194418803
103       0.016263310443
104       0.020249797374
105       0.023092904902
106       0.002453464569
107       0.008216417718
108      -0.002724973379
109      -0.000895825627
110      -0.006474532826
111      -0.002937818804
112      -0.002820076891
113      -0.004228009958
114      -0.073288463484
115       0.001555985762
116      -0.000595031872
117      -0.012188727933
118      -0.000138094102
119       0.130874227576
120       0.010785426988
121       0.022726147621
122      -0.008698734608
123      -0.011985857957
124       0.117695413537
125       0.002547333747
126      -0.021316045219
127      -0.009436183460
128      -0.012581003388
129       0.121257493153
130      -0.004393074626
131      -0.001462297711
132      -0.007679944635
133       0.024157519657
134       0.006594329839
135       0.006927484335
136       0.001312131276
137       0.001551720909
138       0.000643282466
139      -0.021573537078
140      -0.004882323084
141      -0.002832093266
142      -0.000721383279
143      -0.001522608808
144      -0.007135465545
145       0.002601507318
146       0.000367511846
147       0.000756016738
148       0.001931240682
149      -0.074419000002
150      -0.002641703040
151      -0.011807775330
152      -0.005679922364
153      -0.007671272915
154      -0.074482135303
155      -0.013213465420
156       0.012381169834
157      -0.006709525723
158      -0.005282771589
159      -0.068947902556
160       0.003670716942
161      -0.001886223968
162      -0.002962991181
163       0.013962434963
164      -0.082902724587
165      -0.000903620634
166       0.000669478845
167       0.018968974977
168       0.000399828948
169      -0.088359413464
170       0.005000133819
171      -0.003007675680
172      -0.005840457842
173       0.017507976528
174      -0.098635878243
175      -0.006955228228
176       0.017271264623
177      -0.008297445223
178      -0.007096959441
 Sym=     1a
 Ene= -6.48001777435521E-01
 Spin= Alpha
 Occup= 2.000000
  1      -0.000229170625
  2       0.003756456569
  3      -0.019866700269
  4       0.115016964599
  5      -0.104774380523
  6      -0.006851314030
  7       0.041320119342
  8      -0.056286438754
  9      -0.003667626141
 10       0.000450703449
 11       0.007333863973
 12      -0.002891782635
 13      -0.014470844578
 14       0.008505906959
 15       0.026301216348
 16      -0.234791727745
 17      -0.220700952220
 18       0.003995380822
 19      -0.014963124851
 20       0.004256412365
 21      -0.002471328635
 22       0.007810306146
 23      -0.008388332956
 24       0.001664451776
 25       0.002644425526
 26      -0.000835117222
 27      -0.003609998258
 28       0.002348401932
 29       0.003313450419
 30       0.003141057100
 31       0.000632460598
 32      -0.000449067999
 33       0.000172288325
 34      -0.006594066208
 35       0.056716084586
 36       0.113412777893
 37       0.016989224065
 38      -0.028317317467
 39      -0.010832642762
 40       0.006585029319
 41      -0.001043946414
 42      -0.016021587771
 43      -0.001031144793
 44      -0.000833149859
 45       0.002752844819
 46      -0.002503221578
 47       0.000731473402
 48      -0.019392460867
 49       0.173181421753
 50       0.161269917346
 51       0.028573879300
 52      -0.006951635969
 53      -0.002838373103
 54      -0.002343163825
 55       0.003533966701
 56       0.005002990709
 57      -0.001745774025
 58      -0.000247265609
 59      -0.000896145750
 60      -0.003444286376
 61       0.002585620180
 62      -0.001021183211
 63       0.006870204390
 64      -0.003261921175
 65       0.012608808756
 66      -0.012236421586
 67      -0.000392381685
 68      -0.002946735761
 69       0.001820941935
 70      -0.000441339051
 71      -0.000719972718
 72      -0.000254872242
 73      -0.000507191959
 74      -0.002948754951
 75      -0.000926584334
 76       0.033654833973
 77      -0.003177515878
 78       0.000943343121
 79       0.001219607028
 80      -0.006701522425
 81      -0.000725315570
 82       0.010354277167
 83      -0.019149434827
 84      -0.069918629710
 85      -0.012444846030
 86      -0.015800106024
 87       0.000408809942
 88      -0.005361611010
 89       0.002922133312
 90      -0.001245646636
 91      -0.005965698003
 92      -0.000729170811
 93      -0.000418049149
 94      -0.002804212457
 95       0.007142946823
 96       0.005099541996
 97      -0.001542641893
 98      -0.000811486926
 99       0.000375485117
100       0.011055445367
101      -0.099286464686
102      -0.108163252958
103      -0.006166353247
104       0.000630430288
105       0.002463321417
106       0.005258504476
107       0.003527785638
108       0.003029105189
109      -0.000400920240
110      -0.001852093171
111      -0.000800052032
112      -0.000718538493
113      -0.000775506032
114       0.019079540044
115       0.007968328697
116      -0.002832818883
117       0.000903507137
118      -0.000670041920
119      -0.008644754892
120      -0.006873138109
121       0.001751833134
122       0.000577951291
123       0.000610745370
124       0.006577930682
125       0.003568668883
126      -0.001640174202
127      -0.000722377001
128      -0.001016066504
129       0.002786888579
130      -0.001460881121
131       0.000723368707
132      -0.000042422060
133       0.000923620580
134      -0.161864204986
135      -0.013972115849
136      -0.000861405561
137       0.029515936926
138      -0.006572707992
139      -0.148202066839
140      -0.008980747571
141      -0.020205370002
142      -0.015909976377
143      -0.014801455306
144      -0.144831675619
145       0.000176745639
146      -0.003254261582
147      -0.005172701064
148       0.028182786979
149       0.099126032064
150       0.003588213118
151       0.017431806044
152       0.006044772333
153       0.010612797981
154       0.129699610301
155       0.012782874122
156      -0.019213129713
157       0.009288143432
158       0.008162992112
159       0.106724810869
160       0.002499458728
161       0.003927121501
162       0.004163773243
163      -0.020649255158
164      -0.063250844480
165      -0.003216612877
166       0.000819479213
167       0.012330104386
168      -0.000043785786
169      -0.060941337033
170       0.000390609798
171      -0.002194456250
172      -0.004104998121
173       0.011164500119
174      -0.066650130974
175      -0.003665287615
176       0.010344015195
177      -0.005421770733
178      -0.004894575361
 Sym=     1a
 Ene= -6.10494386212753E-01
 Spin= Alpha
 Occup= 2.000000
  1       0.005723219343
  2      -0.055436726480
  3      -0.039736729446
  4      -0.065217205396
  5      -0.071575736657
  6      -0.017329860635
  7      -0.008540496207
  8      -0.021677492668
  9      -0.013943916491
 10      -0.002323478828
 11      -0.004843856631
 12      -0.002834250186
 13      -0.010300758690
 14      -0.000683007770
 15       0.000620502357
 16      -0.004012910569
 17      -0.004408191916
 18      -0.017028830619
 19      -0.009330032563
 20       0.000496840911
 21      -0.004927107708
 22      -0.002916476125
 23       0.002031079006
 24       0.000400804515
 25       0.001281435377
 26       0.000463609700
 27      -0.002931509341
 28       0.000654138835
 29      -0.040250592509
 30      -0.005508173836
 31       0.000048740776
 32       0.001257266664
 33      -0.006057586873
 34       0.012379213813
 35      -0.113120470237
 36      -0.178635264643
 37      -0.021174065895
 38       0.111989327047
 39       0.045925452505
 40      -0.016017304041
 41       0.048085522431
 42       0.038749148166
 43      -0.001437470122
 44       0.001244891270
 45      -0.004329476726
 46      -0.012715903157
 47       0.002288128847
 48      -0.015158081505
 49       0.134309588765
 50       0.155223329058
 51      -0.026548179448
 52      -0.040792684158
 53      -0.004231363143
 54      -0.003685198759
 55       0.000075836886
 56       0.011786113879
 57       0.000501042475
 58       0.000208901389
 59      -0.000428741813
 60      -0.000143898217
 61      -0.001707744414
 62      -0.018883305351
 63       0.167940208892
 64       0.197181666291
 65       0.001629614508
 66       0.064215268695
 67       0.014140324572
 68       0.002947583871
 69       0.000654434127
 70      -0.013673606171
 71       0.000873437672
 72       0.000344517278
 73      -0.000347870820
 74       0.002290632885
 75       0.000265473741
 76      -0.062725010066
 77       0.002318972941